 Gaussian 16, Revision C.01,
 Gaussian 16:  ES64L-G16RevC.01  3-Jul-2019

 ---------------------------------------------
 # wB97xD/Def2TZVP SCF(Tight) Int(Grid=299974)
 ---------------------------------------------

 ------------------
 Displacement_-0.04
 ------------------
 Symbolic Z-matrix:
 Charge = -1 Multiplicity = 1

                         Standard orientation:
 ---------------------------------------------------------------------
 Center     Atomic      Atomic             Coordinates (Angstroms)
 Number     Number       Type             X           Y           Z
 ---------------------------------------------------------------------
      1          7           0       -2.449424    1.662497    0.310065
      2          1           0       -1.892567    1.663424    1.156110
      3          1           0       -2.080685    2.395730   -0.276937
      4          1           0       -4.177358    1.142055    0.660408
      5          6           0       -2.348268    0.353704   -0.351905
      6          1           0       -2.341286    0.522841   -1.433227
      7          6           0       -1.094337   -0.433929    0.019447
      8          1           0       -1.158636   -1.421273   -0.440318
      9          1           0       -1.094172   -0.599130    1.104341
     10          6           0        0.189498    0.268575   -0.402158
     11          1           0        0.226226    1.274973    0.031551
     12          1           0        0.202117    0.401733   -1.488958
     13          6           0        1.455107   -0.475114    0.011344
     14          1           0        1.500315   -1.448734   -0.485916
     15          1           0        1.387974   -0.689150    1.097795
     16          7           0        2.637843    0.252243   -0.371176
     17          1           0        2.663477    1.141003    0.182283
     18          6           0        3.911605   -0.453304   -0.159503
     19          7           0        4.229489   -0.559768    1.253053
     20          1           0        3.544026   -1.131764    1.729929
     21          1           0        4.122872    0.376115    1.721926
     22          7           0        4.954595    0.390679   -0.715671
     23          1           0        4.678242    0.585400   -1.670483
     24          1           0        4.936584    1.304280   -0.207981
     25          6           0       -3.633904   -0.445831   -0.088030
     26          8           0       -4.586422    0.258480    0.524578
     27          8           0       -3.788935   -1.586189   -0.423277
 ---------------------------------------------------------------------

 SCF Done:  E(RwB97XD) =  -607.132800062     A.U. after   17 cycles

 The electronic state is 1-A.
 Alpha  occ. eigenvalues --  -19.20420 -19.14474 -14.37146 -14.23881 -14.22600
 Alpha  occ. eigenvalues --  -14.22121 -10.32612 -10.25466 -10.19389 -10.16785
 Alpha  occ. eigenvalues --  -10.15854 -10.10013  -1.12370  -1.03767  -0.94109
 Alpha  occ. eigenvalues --   -0.85522  -0.80062  -0.77096  -0.73959  -0.71243
 Alpha  occ. eigenvalues --   -0.62973  -0.60592  -0.56961  -0.54590  -0.51429
 Alpha  occ. eigenvalues --   -0.48814  -0.47914  -0.45820  -0.45278  -0.43382
 Alpha  occ. eigenvalues --   -0.41499  -0.40407  -0.39089  -0.37138  -0.36257
 Alpha  occ. eigenvalues --   -0.35183  -0.33692  -0.32675  -0.31887  -0.31200
 Alpha  occ. eigenvalues --   -0.30530  -0.28645  -0.28265  -0.26190  -0.18668
 Alpha  occ. eigenvalues --   -0.15498  -0.11872  -0.03609
 Alpha virt. eigenvalues --    0.15792   0.18122   0.20608   0.22639   0.23391
 Alpha virt. eigenvalues --    0.25088   0.25758   0.26597   0.27613   0.28231
 Alpha virt. eigenvalues --    0.30002   0.30927   0.32241   0.32745   0.33112

 Mulliken charges:
               1
     1  N   -0.595768
     2  H    0.244821
     3  H    0.246425
     4  H    0.340840
     5  C    0.056925
     6  H    0.107076
     7  C   -0.267008
     8  H    0.127083
     9  H    0.095353
    10  C   -0.136881
    11  H    0.045850
    12  H    0.073721
    13  C   -0.070091
    14  H    0.055550
    15  H   -0.006330
    16  N   -0.281824
    17  H   -0.045054
    18  C    0.048440
    19  N   -0.494993
    20  H    0.170878
    21  H    0.008699
    22  N   -0.507619
    23  H    0.164386
    24  H    0.044975
    25  C    0.318939
    26  O   -0.384463
    27  O   -0.359927
 Sum of Mulliken charges =  -1.00000

 Dipole moment (field-independent basis, Debye):
    X=            -14.0999    Y=              5.7920    Z=              0.8505  Tot=             15.2669
 Quadrupole moment (field-independent basis, Debye-Ang):
   XX=           -197.7451   YY=            -83.5165   ZZ=            -78.5346
   XY=             -2.8828   XZ=              0.4247   YZ=             -1.5760

 Normal termination of Gaussian 16 at Tue Jun 10 17:56:20 2025.
