 Gaussian 16, Revision C.01,
 Gaussian 16:  ES64L-G16RevC.01  3-Jul-2019

 ---------------------------------------------
 # wB97xD/Def2TZVP SCF(Tight) Int(Grid=299974)
 ---------------------------------------------

 -----------------
 Displacement_0.02
 -----------------
 Symbolic Z-matrix:
 Charge = -1 Multiplicity = 1

                         Standard orientation:
 ---------------------------------------------------------------------
 Center     Atomic      Atomic             Coordinates (Angstroms)
 Number     Number       Type             X           Y           Z
 ---------------------------------------------------------------------
      1          7           0       -2.449374    1.661911    0.313827
      2          1           0       -1.892618    1.660884    1.159937
      3          1           0       -2.080476    2.396403   -0.271498
      4          1           0       -4.177415    1.140904    0.662806
      5          6           0       -2.348302    0.354583   -0.351046
      6          1           0       -2.341172    0.526126   -1.431987
      7          6           0       -1.094513   -0.434032    0.018699
      8          1           0       -1.158880   -1.420341   -0.443272
      9          1           0       -1.094496   -0.601648    1.103222
     10          6           0        0.189459    0.269251   -0.401189
     11          1           0        0.226261    1.274675    0.034765
     12          1           0        0.202222    0.404827   -1.487688
     13          6           0        1.454927   -0.475515    0.010805
     14          1           0        1.500073   -1.448631   -0.488018
     15          1           0        1.387039   -0.692561    1.096767
     16          7           0        2.637798    0.252546   -0.369956
     17          1           0        2.663477    1.140067    0.186084
     18          6           0        3.910848   -0.453630   -0.159105
     19          7           0        4.228551   -0.562681    1.255649
     20          1           0        3.545962   -1.157834    1.705952
     21          1           0        4.137597    0.383590    1.697202
     22          7           0        4.954007    0.389060   -0.712671
     23          1           0        4.683192    0.615338   -1.662858
     24          1           0        4.938452    1.318948   -0.228136
     25          6           0       -3.634069   -0.445379   -0.089103
     26          8           0       -4.586572    0.257684    0.524960
     27          8           0       -3.789202   -1.584968   -0.426908
 ---------------------------------------------------------------------

 SCF Done:  E(RwB97XD) =  -607.133021578     A.U. after   17 cycles

 The electronic state is 1-A.
 Alpha  occ. eigenvalues --  -19.20421 -19.14475 -14.37146 -14.23894 -14.22549
 Alpha  occ. eigenvalues --  -14.22165 -10.32612 -10.25466 -10.19390 -10.16787
 Alpha  occ. eigenvalues --  -10.15860 -10.09999  -1.12371  -1.03768  -0.94110
 Alpha  occ. eigenvalues --   -0.85527  -0.80062  -0.77097  -0.73949  -0.71246
 Alpha  occ. eigenvalues --   -0.62976  -0.60593  -0.56965  -0.54594  -0.51430
 Alpha  occ. eigenvalues --   -0.48812  -0.47894  -0.45818  -0.45276  -0.43374
 Alpha  occ. eigenvalues --   -0.41524  -0.40407  -0.39045  -0.37178  -0.36316
 Alpha  occ. eigenvalues --   -0.35050  -0.33836  -0.32681  -0.31886  -0.31187
 Alpha  occ. eigenvalues --   -0.30493  -0.28755  -0.28167  -0.26194  -0.18622
 Alpha  occ. eigenvalues --   -0.15534  -0.11875  -0.03608
 Alpha virt. eigenvalues --    0.15791   0.18122   0.20612   0.22637   0.23403
 Alpha virt. eigenvalues --    0.25100   0.25766   0.26600   0.27630   0.28148
 Alpha virt. eigenvalues --    0.29998   0.30973   0.32237   0.32761   0.33088

 Mulliken charges:
               1
     1  N   -0.595785
     2  H    0.244842
     3  H    0.246418
     4  H    0.340843
     5  C    0.056926
     6  H    0.107081
     7  C   -0.266914
     8  H    0.127065
     9  H    0.095327
    10  C   -0.137271
    11  H    0.045959
    12  H    0.073752
    13  C   -0.070583
    14  H    0.055722
    15  H   -0.005359
    16  N   -0.282636
    17  H   -0.045816
    18  C    0.049541
    19  N   -0.495808
    20  H    0.172732
    21  H    0.013392
    22  N   -0.505676
    23  H    0.162061
    24  H    0.039634
    25  C    0.318942
    26  O   -0.384458
    27  O   -0.359931
 Sum of Mulliken charges =  -1.00000

 Dipole moment (field-independent basis, Debye):
    X=            -14.0999    Y=              5.7930    Z=              0.8599  Tot=             15.2678
 Quadrupole moment (field-independent basis, Debye-Ang):
   XX=           -197.7530   YY=            -83.3882   ZZ=            -78.6617
   XY=             -2.8400   XZ=              0.4206   YZ=             -1.6702

 Normal termination of Gaussian 16 at Wed Jun 11 04:42:04 2025.
