 Gaussian 16, Revision C.01,
 Gaussian 16:  ES64L-G16RevC.01  3-Jul-2019

 ---------------------------------------------
 # wB97xD/Def2TZVP SCF(Tight) Int(Grid=299974)
 ---------------------------------------------

 -----------------
 Displacement_-0.1
 -----------------
 Symbolic Z-matrix:
 Charge = -1 Multiplicity = 1

                         Standard orientation:
 ---------------------------------------------------------------------
 Center     Atomic      Atomic             Coordinates (Angstroms)
 Number     Number       Type             X           Y           Z
 ---------------------------------------------------------------------
      1          7           0       -2.449473    1.663087    0.306246
      2          1           0       -1.892517    1.665994    1.152222
      3          1           0       -2.080893    2.395037   -0.282455
      4          1           0       -4.177302    1.143226    0.657967
      5          6           0       -2.348233    0.352814   -0.352777
      6          1           0       -2.341398    0.519507   -1.434478
      7          6           0       -1.094161   -0.433824    0.020208
      8          1           0       -1.158393   -1.422213   -0.437317
      9          1           0       -1.093849   -0.596573    1.105472
     10          6           0        0.189538    0.267883   -0.403134
     11          1           0        0.226193    1.275263    0.028295
     12          1           0        0.202013    0.398586   -1.490234
     13          6           0        1.455287   -0.474713    0.011900
     14          1           0        1.500557   -1.448852   -0.483766
     15          1           0        1.388907   -0.685701    1.098836
     16          7           0        2.637888    0.251923   -0.372403
     17          1           0        2.663478    1.141932    0.178443
     18          6           0        3.912362   -0.452990   -0.159885
     19          7           0        4.230424   -0.556830    1.250473
     20          1           0        3.542088   -1.105538    1.753838
     21          1           0        4.108155    0.368804    1.746688
     22          7           0        4.955182    0.392261   -0.718690
     23          1           0        4.673298    0.555372   -1.677997
     24          1           0        4.934727    1.289698   -0.187799
     25          6           0       -3.633739   -0.446282   -0.086945
     26          8           0       -4.586273    0.259295    0.524182
     27          8           0       -3.788669   -1.587413   -0.419595
 ---------------------------------------------------------------------

 SCF Done:  E(RwB97XD) =  -607.131247885     A.U. after   17 cycles

 The electronic state is 1-A.
 Alpha  occ. eigenvalues --  -19.20420 -19.14474 -14.37146 -14.23874 -14.22677
 Alpha  occ. eigenvalues --  -14.22099 -10.32612 -10.25466 -10.19389 -10.16785
 Alpha  occ. eigenvalues --  -10.15851 -10.10045  -1.12371  -1.03768  -0.94110
 Alpha  occ. eigenvalues --   -0.85521  -0.80064  -0.77096  -0.73957  -0.71242
 Alpha  occ. eigenvalues --   -0.62971  -0.60593  -0.56958  -0.54588  -0.51428
 Alpha  occ. eigenvalues --   -0.48818  -0.47944  -0.45824  -0.45282  -0.43394
 Alpha  occ. eigenvalues --   -0.41517  -0.40411  -0.39188  -0.37132  -0.36209
 Alpha  occ. eigenvalues --   -0.35206  -0.33517  -0.32653  -0.31888  -0.31206
 Alpha  occ. eigenvalues --   -0.30554  -0.28512  -0.28344  -0.26186  -0.18714
 Alpha  occ. eigenvalues --   -0.15465  -0.11873  -0.03619
 Alpha virt. eigenvalues --    0.15792   0.18121   0.20603   0.22639   0.23378
 Alpha virt. eigenvalues --    0.25063   0.25751   0.26593   0.27589   0.28307
 Alpha virt. eigenvalues --    0.29997   0.30868   0.32243   0.32719   0.33131

 Mulliken charges:
               1
     1  N   -0.595751
     2  H    0.244804
     3  H    0.246433
     4  H    0.340839
     5  C    0.056919
     6  H    0.107073
     7  C   -0.267108
     8  H    0.127103
     9  H    0.095394
    10  C   -0.136462
    11  H    0.045770
    12  H    0.073702
    13  C   -0.069672
    14  H    0.055416
    15  H   -0.007215
    16  N   -0.280773
    17  H   -0.043984
    18  C    0.046704
    19  N   -0.493738
    20  H    0.169061
    21  H    0.003430
    22  N   -0.509256
    23  H    0.166729
    24  H    0.050031
    25  C    0.318937
    26  O   -0.384463
    27  O   -0.359923
 Sum of Mulliken charges =  -1.00000

 Dipole moment (field-independent basis, Debye):
    X=            -14.1027    Y=              5.7846    Z=              0.8360  Tot=             15.2658
 Quadrupole moment (field-independent basis, Debye-Ang):
   XX=           -197.7553   YY=            -83.6510   ZZ=            -78.4241
   XY=             -2.9585   XZ=              0.4094   YZ=             -1.4814

 Normal termination of Gaussian 16 at Tue Jun 10 13:06:54 2025.
