 Gaussian 16, Revision C.01,
 Gaussian 16:  ES64L-G16RevC.01  3-Jul-2019

 ---------------------------------------------
 # wB97xD/Def2TZVP SCF(Tight) Int(Grid=299974)
 ---------------------------------------------

 ------------------
 Displacement_-0.07
 ------------------
 Symbolic Z-matrix:
 Charge = -1 Multiplicity = 1

                         Standard orientation:
 ---------------------------------------------------------------------
 Center     Atomic      Atomic             Coordinates (Angstroms)
 Number     Number       Type             X           Y           Z
 ---------------------------------------------------------------------
      1          7           0       -2.449448    1.662792    0.308163
      2          1           0       -1.892542    1.664705    1.154174
      3          1           0       -2.080790    2.395386   -0.279686
      4          1           0       -4.177330    1.142638    0.659193
      5          6           0       -2.348250    0.353260   -0.352340
      6          1           0       -2.341342    0.521180   -1.433851
      7          6           0       -1.094249   -0.433877    0.019826
      8          1           0       -1.158514   -1.421742   -0.438823
      9          1           0       -1.094010   -0.597856    1.104905
     10          6           0        0.189518    0.268231   -0.402645
     11          1           0        0.226209    1.275119    0.029928
     12          1           0        0.202065    0.400166   -1.489595
     13          6           0        1.455197   -0.474914    0.011620
     14          1           0        1.500436   -1.448791   -0.484847
     15          1           0        1.388441   -0.687430    1.098314
     16          7           0        2.637866    0.252086   -0.371789
     17          1           0        2.663477    1.141469    0.180368
     18          6           0        3.911984   -0.453145   -0.159696
     19          7           0        4.229956   -0.558302    1.251762
     20          1           0        3.543057   -1.118671    1.741892
     21          1           0        4.115513    0.372439    1.734303
     22          7           0        4.954888    0.391475   -0.717178
     23          1           0        4.675769    0.570397   -1.674254
     24          1           0        4.935654    1.296978   -0.197893
     25          6           0       -3.633822   -0.446057   -0.087489
     26          8           0       -4.586347    0.258885    0.524382
     27          8           0       -3.788802   -1.586801   -0.421443
 ---------------------------------------------------------------------

 SCF Done:  E(RwB97XD) =  -607.132190555     A.U. after   17 cycles

 The electronic state is 1-A.
 Alpha  occ. eigenvalues --  -19.20420 -19.14474 -14.37146 -14.23877 -14.22635
 Alpha  occ. eigenvalues --  -14.22108 -10.32612 -10.25466 -10.19389 -10.16784
 Alpha  occ. eigenvalues --  -10.15852 -10.10027  -1.12370  -1.03767  -0.94109
 Alpha  occ. eigenvalues --   -0.85521  -0.80063  -0.77096  -0.73960  -0.71243
 Alpha  occ. eigenvalues --   -0.62972  -0.60592  -0.56959  -0.54589  -0.51428
 Alpha  occ. eigenvalues --   -0.48815  -0.47928  -0.45822  -0.45280  -0.43387
 Alpha  occ. eigenvalues --   -0.41503  -0.40408  -0.39133  -0.37130  -0.36230
 Alpha  occ. eigenvalues --   -0.35208  -0.33608  -0.32667  -0.31887  -0.31204
 Alpha  occ. eigenvalues --   -0.30544  -0.28581  -0.28307  -0.26188  -0.18691
 Alpha  occ. eigenvalues --   -0.15481  -0.11872  -0.03613
 Alpha virt. eigenvalues --    0.15792   0.18122   0.20605   0.22639   0.23385
 Alpha virt. eigenvalues --    0.25077   0.25754   0.26596   0.27601   0.28269
 Alpha virt. eigenvalues --    0.30001   0.30900   0.32242   0.32733   0.33122

 Mulliken charges:
               1
     1  N   -0.595759
     2  H    0.244812
     3  H    0.246429
     4  H    0.340839
     5  C    0.056922
     6  H    0.107074
     7  C   -0.267057
     8  H    0.127093
     9  H    0.095371
    10  C   -0.136676
    11  H    0.045806
    12  H    0.073710
    13  C   -0.069872
    14  H    0.055478
    15  H   -0.006784
    16  N   -0.281327
    17  H   -0.044557
    18  C    0.047647
    19  N   -0.494437
    20  H    0.169971
    21  H    0.006146
    22  N   -0.508462
    23  H    0.165551
    24  H    0.047534
    25  C    0.318938
    26  O   -0.384464
    27  O   -0.359925
 Sum of Mulliken charges =  -1.00000

 Dipole moment (field-independent basis, Debye):
    X=            -14.1009    Y=              5.7891    Z=              0.8439  Tot=             15.2664
 Quadrupole moment (field-independent basis, Debye-Ang):
   XX=           -197.7479   YY=            -83.5830   ZZ=            -78.4772
   XY=             -2.9165   XZ=              0.4194   YZ=             -1.5287

 Normal termination of Gaussian 16 at Tue Jun 10 15:30:09 2025.
