 Gaussian 16, Revision C.01,
 Gaussian 16:  ES64L-G16RevC.01  3-Jul-2019

 ---------------------------------------------
 # wB97xD/Def2TZVP SCF(Tight) Int(Grid=299974)
 ---------------------------------------------

 ----------------
 Displacement_0.1
 ----------------
 Symbolic Z-matrix:
 Charge = -1 Multiplicity = 1

                         Standard orientation:
 ---------------------------------------------------------------------
 Center     Atomic      Atomic             Coordinates (Angstroms)
 Number     Number       Type             X           Y           Z
 ---------------------------------------------------------------------
      1          7           0       -2.449307    1.661134    0.318754
      2          1           0       -1.892685    1.657543    1.164945
      3          1           0       -2.080194    2.397271   -0.264366
      4          1           0       -4.177490    1.139399    0.665937
      5          6           0       -2.348348    0.355736   -0.349917
      6          1           0       -2.341018    0.530434   -1.430352
      7          6           0       -1.094748   -0.434164    0.017721
      8          1           0       -1.159207   -1.419110   -0.447138
      9          1           0       -1.094931   -0.604947    1.101750
     10          6           0        0.189407    0.270126   -0.399909
     11          1           0        0.226307    1.274268    0.038985
     12          1           0        0.202365    0.408873   -1.486006
     13          6           0        1.454686   -0.476050    0.010108
     14          1           0        1.499749   -1.448516   -0.490750
     15          1           0        1.385790   -0.697055    1.095418
     16          7           0        2.637739    0.252922   -0.368338
     17          1           0        2.663477    1.138808    0.191095
     18          6           0        3.909837   -0.454082   -0.158549
     19          7           0        4.227298   -0.566528    1.259133
     20          1           0        3.548539   -1.192358    1.673881
     21          1           0        4.157242    0.393803    1.664292
     22          7           0        4.953224    0.386844   -0.708700
     23          1           0        4.689804    0.655118   -1.652519
     24          1           0        4.940958    1.338637   -0.254968
     25          6           0       -3.634289   -0.444772   -0.090515
     26          8           0       -4.586772    0.256653    0.525448
     27          8           0       -3.789558   -1.583344   -0.431670
 ---------------------------------------------------------------------

 SCF Done:  E(RwB97XD) =  -607.131257866     A.U. after   17 cycles

 The electronic state is 1-A.
 Alpha  occ. eigenvalues --  -19.20423 -19.14477 -14.37148 -14.23920 -14.22521
 Alpha  occ. eigenvalues --  -14.22259 -10.32615 -10.25469 -10.19394 -10.16794
 Alpha  occ. eigenvalues --  -10.15873 -10.10009  -1.12373  -1.03770  -0.94112
 Alpha  occ. eigenvalues --   -0.85542  -0.80064  -0.77100  -0.73916  -0.71251
 Alpha  occ. eigenvalues --   -0.62983  -0.60596  -0.56975  -0.54601  -0.51434
 Alpha  occ. eigenvalues --   -0.48816  -0.47882  -0.45818  -0.45277  -0.43369
 Alpha  occ. eigenvalues --   -0.41620  -0.40415  -0.39089  -0.37255  -0.36371
 Alpha  occ. eigenvalues --   -0.34729  -0.33972  -0.32685  -0.31885  -0.31168
 Alpha  occ. eigenvalues --   -0.30433  -0.28867  -0.27997  -0.26201  -0.18559
 Alpha  occ. eigenvalues --   -0.15587  -0.11881  -0.03621
 Alpha virt. eigenvalues --    0.15789   0.18120   0.20616   0.22633   0.23417
 Alpha virt. eigenvalues --    0.25099   0.25778   0.26600   0.27641   0.28029
 Alpha virt. eigenvalues --    0.29979   0.31012   0.32226   0.32765   0.33050

 Mulliken charges:
               1
     1  N   -0.595807
     2  H    0.244878
     3  H    0.246411
     4  H    0.340852
     5  C    0.056920
     6  H    0.107091
     7  C   -0.266797
     8  H    0.127044
     9  H    0.095318
    10  C   -0.137753
    11  H    0.046148
    12  H    0.073811
    13  C   -0.071335
    14  H    0.056003
    15  H   -0.003946
    16  N   -0.283281
    17  H   -0.046334
    18  C    0.049911
    19  N   -0.496702
    20  H    0.175430
    21  H    0.019008
    22  N   -0.502250
    23  H    0.158869
    24  H    0.031947
    25  C    0.318947
    26  O   -0.384446
    27  O   -0.359936
 Sum of Mulliken charges =  -1.00000

 Dipole moment (field-independent basis, Debye):
    X=            -14.1042    Y=              5.7843    Z=              0.8647  Tot=             15.2687
 Quadrupole moment (field-independent basis, Debye-Ang):
   XX=           -197.7917   YY=            -83.2279   ZZ=            -78.8558
   XY=             -2.8340   XZ=              0.3846   YZ=             -1.7943

 Normal termination of Gaussian 16 at Tue Jun 10 22:04:46 2025.
