 Gaussian 16, Revision C.01,
 Gaussian 16:  ES64L-G16RevC.01  3-Jul-2019

 ---------------------------------------------
 # wB97xD/Def2TZVP SCF(Tight) Int(Grid=299974)
 ---------------------------------------------

 -----------------
 Displacement_0.05
 -----------------
 Symbolic Z-matrix:
 Charge = -1 Multiplicity = 1

                         Standard orientation:
 ---------------------------------------------------------------------
 Center     Atomic      Atomic             Coordinates (Angstroms)
 Number     Number       Type             X           Y           Z
 ---------------------------------------------------------------------
      1          7           0       -2.449349    1.661619    0.315686
      2          1           0       -1.892643    1.659625    1.161828
      3          1           0       -2.080370    2.396733   -0.268808
      4          1           0       -4.177443    1.140336    0.663989
      5          6           0       -2.348320    0.355017   -0.350620
      6          1           0       -2.341114    0.527751   -1.431371
      7          6           0       -1.094601   -0.434082    0.018330
      8          1           0       -1.159003   -1.419878   -0.444731
      9          1           0       -1.094659   -0.602893    1.102668
     10          6           0        0.189439    0.269582   -0.400707
     11          1           0        0.226278    1.274524    0.036356
     12          1           0        0.202276    0.406355   -1.487056
     13          6           0        1.454837   -0.475715    0.010540
     14          1           0        1.499952   -1.448585   -0.489052
     15          1           0        1.386571   -0.694254    1.096258
     16          7           0        2.637776    0.252691   -0.369348
     17          1           0        2.663477    1.139597    0.187971
     18          6           0        3.910469   -0.453797   -0.158900
     19          7           0        4.228082   -0.564128    1.256952
     20          1           0        3.546929   -1.170812    1.693939
     21          1           0        4.144963    0.387387    1.684853
     22          7           0        4.953713    0.388237   -0.711178
     23          1           0        4.685670    0.630274   -1.659003
     24          1           0        4.939389    1.326314   -0.238204
     25          6           0       -3.634151   -0.445152   -0.089635
     26          8           0       -4.586647    0.257294    0.525146
     27          8           0       -3.789335   -1.584359   -0.428704
 ---------------------------------------------------------------------

 SCF Done:  E(RwB97XD) =  -607.132635091     A.U. after   17 cycles

 The electronic state is 1-A.
 Alpha  occ. eigenvalues --  -19.20421 -19.14475 -14.37147 -14.23903 -14.22533
 Alpha  occ. eigenvalues --  -14.22196 -10.32613 -10.25467 -10.19391 -10.16789
 Alpha  occ. eigenvalues --  -10.15864 -10.09999  -1.12371  -1.03769  -0.94111
 Alpha  occ. eigenvalues --   -0.85532  -0.80062  -0.77098  -0.73940  -0.71248
 Alpha  occ. eigenvalues --   -0.62978  -0.60594  -0.56969  -0.54596  -0.51432
 Alpha  occ. eigenvalues --   -0.48813  -0.47887  -0.45818  -0.45276  -0.43371
 Alpha  occ. eigenvalues --   -0.41552  -0.40409  -0.39048  -0.37206  -0.36341
 Alpha  occ. eigenvalues --   -0.34946  -0.33894  -0.32682  -0.31886  -0.31180
 Alpha  occ. eigenvalues --   -0.30471  -0.28802  -0.28109  -0.26196  -0.18599
 Alpha  occ. eigenvalues --   -0.15553  -0.11877  -0.03611
 Alpha virt. eigenvalues --    0.15791   0.18121   0.20614   0.22636   0.23409
 Alpha virt. eigenvalues --    0.25102   0.25770   0.26600   0.27636   0.28105
 Alpha virt. eigenvalues --    0.29992   0.30990   0.32233   0.32765   0.33074

 Mulliken charges:
               1
     1  N   -0.595793
     2  H    0.244854
     3  H    0.246415
     4  H    0.340845
     5  C    0.056925
     6  H    0.107084
     7  C   -0.266869
     8  H    0.127057
     9  H    0.095321
    10  C   -0.137456
    11  H    0.046024
    12  H    0.073771
    13  C   -0.070854
    14  H    0.055821
    15  H   -0.004844
    16  N   -0.282941
    17  H   -0.046078
    18  C    0.049833
    19  N   -0.496139
    20  H    0.173703
    21  H    0.015568
    22  N   -0.504523
    23  H    0.160884
    24  H    0.036835
    25  C    0.318944
    26  O   -0.384455
    27  O   -0.359933
 Sum of Mulliken charges =  -1.00000

 Dipole moment (field-independent basis, Debye):
    X=            -14.1009    Y=              5.7910    Z=              0.8627  Tot=             15.2682
 Quadrupole moment (field-independent basis, Debye-Ang):
   XX=           -197.7637   YY=            -83.3266   ZZ=            -78.7313
   XY=             -2.8309   XZ=              0.4112   YZ=             -1.7171

 Normal termination of Gaussian 16 at Wed Jun 11 02:13:06 2025.
