 Gaussian 16, Revision C.01,
 Gaussian 16:  ES64L-G16RevC.01  3-Jul-2019

 ---------------------------------------------
 # wB97xD/Def2TZVP SCF(Tight) Int(Grid=299974)
 ---------------------------------------------

 ------------------
 Displacement_-0.09
 ------------------
 Symbolic Z-matrix:
 Charge = -1 Multiplicity = 1

                         Standard orientation:
 ---------------------------------------------------------------------
 Center     Atomic      Atomic             Coordinates (Angstroms)
 Number     Number       Type             X           Y           Z
 ---------------------------------------------------------------------
      1          7           0       -2.449465    1.662989    0.306887
      2          1           0       -1.892526    1.665563    1.152874
      3          1           0       -2.080859    2.395154   -0.281530
      4          1           0       -4.177311    1.143029    0.658377
      5          6           0       -2.348239    0.352963   -0.352631
      6          1           0       -2.341379    0.520066   -1.434269
      7          6           0       -1.094190   -0.433842    0.020080
      8          1           0       -1.158433   -1.422055   -0.437820
      9          1           0       -1.093903   -0.597002    1.105283
     10          6           0        0.189531    0.268000   -0.402971
     11          1           0        0.226198    1.275215    0.028841
     12          1           0        0.202030    0.399114   -1.490021
     13          6           0        1.455257   -0.474780    0.011806
     14          1           0        1.500517   -1.448831   -0.484128
     15          1           0        1.388752   -0.686279    1.098661
     16          7           0        2.637881    0.251978   -0.372198
     17          1           0        2.663478    1.141778    0.179086
     18          6           0        3.912236   -0.453041   -0.159822
     19          7           0        4.230268   -0.557322    1.250902
     20          1           0        3.542411   -1.109920    1.749858
     21          1           0        4.110607    0.370011    1.742559
     22          7           0        4.955084    0.392000   -0.718186
     23          1           0        4.674122    0.560383   -1.676752
     24          1           0        4.935035    1.292122   -0.191164
     25          6           0       -3.633767   -0.446207   -0.087126
     26          8           0       -4.586298    0.259158    0.524249
     27          8           0       -3.788714   -1.587209   -0.420213
 ---------------------------------------------------------------------

 SCF Done:  E(RwB97XD) =  -607.131599144     A.U. after   17 cycles

 The electronic state is 1-A.
 Alpha  occ. eigenvalues --  -19.20420 -19.14474 -14.37146 -14.23875 -14.22662
 Alpha  occ. eigenvalues --  -14.22101 -10.32612 -10.25466 -10.19389 -10.16785
 Alpha  occ. eigenvalues --  -10.15851 -10.10038  -1.12370  -1.03767  -0.94109
 Alpha  occ. eigenvalues --   -0.85521  -0.80063  -0.77096  -0.73958  -0.71242
 Alpha  occ. eigenvalues --   -0.62971  -0.60592  -0.56958  -0.54588  -0.51428
 Alpha  occ. eigenvalues --   -0.48817  -0.47938  -0.45823  -0.45281  -0.43392
 Alpha  occ. eigenvalues --   -0.41511  -0.40410  -0.39169  -0.37130  -0.36215
 Alpha  occ. eigenvalues --   -0.35210  -0.33548  -0.32658  -0.31888  -0.31206
 Alpha  occ. eigenvalues --   -0.30551  -0.28536  -0.28332  -0.26187  -0.18706
 Alpha  occ. eigenvalues --   -0.15470  -0.11873  -0.03617
 Alpha virt. eigenvalues --    0.15792   0.18121   0.20604   0.22639   0.23380
 Alpha virt. eigenvalues --    0.25068   0.25752   0.26594   0.27593   0.28294
 Alpha virt. eigenvalues --    0.29999   0.30879   0.32243   0.32724   0.33128

 Mulliken charges:
               1
     1  N   -0.595754
     2  H    0.244806
     3  H    0.246432
     4  H    0.340839
     5  C    0.056920
     6  H    0.107073
     7  C   -0.267091
     8  H    0.127100
     9  H    0.095386
    10  C   -0.136534
    11  H    0.045781
    12  H    0.073705
    13  C   -0.069737
    14  H    0.055435
    15  H   -0.007074
    16  N   -0.280964
    17  H   -0.044183
    18  C    0.047035
    19  N   -0.493989
    20  H    0.169365
    21  H    0.004355
    22  N   -0.508995
    23  H    0.166334
    24  H    0.049205
    25  C    0.318937
    26  O   -0.384464
    27  O   -0.359924
 Sum of Mulliken charges =  -1.00000

 Dipole moment (field-independent basis, Debye):
    X=            -14.1020    Y=              5.7862    Z=              0.8388  Tot=             15.2660
 Quadrupole moment (field-independent basis, Debye-Ang):
   XX=           -197.7524   YY=            -83.6282   ZZ=            -78.4413
   XY=             -2.9436   XZ=              0.4133   YZ=             -1.4972

 Normal termination of Gaussian 16 at Tue Jun 10 13:54:35 2025.
