 Gaussian 16, Revision C.01,
 Gaussian 16:  ES64L-G16RevC.01  3-Jul-2019

 ---------------------------------------------
 # wB97xD/Def2TZVP SCF(Tight) Int(Grid=299974)
 ---------------------------------------------

 --------------
 Displacement_0
 --------------
 Symbolic Z-matrix:
 Charge = -1 Multiplicity = 1

                         Standard orientation:
 ---------------------------------------------------------------------
 Center     Atomic      Atomic             Coordinates (Angstroms)
 Number     Number       Type             X           Y           Z
 ---------------------------------------------------------------------
      1          7           0       -2.449391    1.662106    0.312579
      2          1           0       -1.892601    1.661727    1.158668
      3          1           0       -2.080546    2.396181   -0.273303
      4          1           0       -4.177396    1.141286    0.662011
      5          6           0       -2.348291    0.354291   -0.351331
      6          1           0       -2.341210    0.525036   -1.432399
      7          6           0       -1.094454   -0.433998    0.018947
      8          1           0       -1.158799   -1.420651   -0.442292
      9          1           0       -1.094388   -0.600813    1.103594
     10          6           0        0.189472    0.269027   -0.401511
     11          1           0        0.226249    1.274775    0.033698
     12          1           0        0.202187    0.403801   -1.488111
     13          6           0        1.454987   -0.475381    0.010983
     14          1           0        1.500154   -1.448664   -0.487322
     15          1           0        1.387351   -0.691428    1.097108
     16          7           0        2.637813    0.252447   -0.370362
     17          1           0        2.663477    1.140380    0.184821
     18          6           0        3.911100   -0.453520   -0.159239
     19          7           0        4.228864   -0.561712    1.254782
     20          1           0        3.545317   -1.149161    1.713952
     21          1           0        4.132688    0.381081    1.705439
     22          7           0        4.954203    0.389604   -0.713669
     23          1           0        4.681541    0.605368   -1.665412
     24          1           0        4.937828    1.314049   -0.221421
     25          6           0       -3.634014   -0.445530   -0.088747
     26          8           0       -4.586522    0.257947    0.524834
     27          8           0       -3.789113   -1.585375   -0.425703
 ---------------------------------------------------------------------

 SCF Done:  E(RwB97XD) =  -607.133095285     A.U. after   17 cycles

 The electronic state is 1-A.
 Alpha  occ. eigenvalues --  -19.20420 -19.14474 -14.37146 -14.23889 -14.22563
 Alpha  occ. eigenvalues --  -14.22148 -10.32612 -10.25466 -10.19389 -10.16786
 Alpha  occ. eigenvalues --  -10.15857 -10.10001  -1.12371  -1.03768  -0.94110
 Alpha  occ. eigenvalues --   -0.85525  -0.80062  -0.77097  -0.73954  -0.71245
 Alpha  occ. eigenvalues --   -0.62975  -0.60593  -0.56964  -0.54592  -0.51430
 Alpha  occ. eigenvalues --   -0.48812  -0.47899  -0.45818  -0.45276  -0.43376
 Alpha  occ. eigenvalues --   -0.41511  -0.40406  -0.39053  -0.37162  -0.36297
 Alpha  occ. eigenvalues --   -0.35106  -0.33792  -0.32680  -0.31886  -0.31192
 Alpha  occ. eigenvalues --   -0.30506  -0.28721  -0.28202  -0.26193  -0.18638
 Alpha  occ. eigenvalues --   -0.15522  -0.11874  -0.03608
 Alpha virt. eigenvalues --    0.15792   0.18122   0.20611   0.22638   0.23400
 Alpha virt. eigenvalues --    0.25097   0.25763   0.26599   0.27625   0.28176
 Alpha virt. eigenvalues --    0.30000   0.30959   0.32239   0.32757   0.33096

 Mulliken charges:
               1
     1  N   -0.595780
     2  H    0.244834
     3  H    0.246420
     4  H    0.340841
     5  C    0.056926
     6  H    0.107079
     7  C   -0.266945
     8  H    0.127071
     9  H    0.095334
    10  C   -0.137144
    11  H    0.045920
    12  H    0.073740
    13  C   -0.070411
    14  H    0.055661
    15  H   -0.005691
    16  N   -0.282394
    17  H   -0.045597
    18  C    0.049248
    19  N   -0.495568
    20  H    0.172104
    21  H    0.011882
    22  N   -0.506371
    23  H    0.162838
    24  H    0.041450
    25  C    0.318941
    26  O   -0.384460
    27  O   -0.359930
 Sum of Mulliken charges =  -1.00000

 Dipole moment (field-independent basis, Debye):
    X=            -14.0996    Y=              5.7934    Z=              0.8573  Tot=             15.2675
 Quadrupole moment (field-independent basis, Debye-Ang):
   XX=           -197.7483   YY=            -83.4302   ZZ=            -78.6175
   XY=             -2.8506   XZ=              0.4241   YZ=             -1.6389

 Normal termination of Gaussian 16 at Tue Jun 10 21:15:27 2025.
