 Gaussian 16, Revision C.01,
 Gaussian 16:  ES64L-G16RevC.01  3-Jul-2019

 ---------------------------------------------
 # wB97xD/Def2TZVP SCF(Tight) Int(Grid=299974)
 ---------------------------------------------

 ------------------
 Displacement_-0.03
 ------------------
 Symbolic Z-matrix:
 Charge = -1 Multiplicity = 1

                         Standard orientation:
 ---------------------------------------------------------------------
 Center     Atomic      Atomic             Coordinates (Angstroms)
 Number     Number       Type             X           Y           Z
 ---------------------------------------------------------------------
      1          7           0       -2.449416    1.662399    0.310696
      2          1           0       -1.892576    1.662998    1.156752
      3          1           0       -2.080651    2.395844   -0.276025
      4          1           0       -4.177368    1.141862    0.660810
      5          6           0       -2.348274    0.353851   -0.351761
      6          1           0       -2.341267    0.523392   -1.433019
      7          6           0       -1.094366   -0.433947    0.019321
      8          1           0       -1.158677   -1.421117   -0.440814
      9          1           0       -1.094226   -0.599552    1.104154
     10          6           0        0.189492    0.268689   -0.401996
     11          1           0        0.226232    1.274924    0.032090
     12          1           0        0.202134    0.402252   -1.488746
     13          6           0        1.455077   -0.475181    0.011253
     14          1           0        1.500275   -1.448716   -0.486269
     15          1           0        1.387818   -0.689721    1.097622
     16          7           0        2.637836    0.252295   -0.370972
     17          1           0        2.663477    1.140848    0.182919
     18          6           0        3.911479   -0.453357   -0.159437
     19          7           0        4.229333   -0.560255    1.253485
     20          1           0        3.544349   -1.136120    1.725937
     21          1           0        4.125326    0.377350    1.717803
     22          7           0        4.954497    0.390412   -0.715170
     23          1           0        4.679066    0.590396   -1.669220
     24          1           0        4.936895    1.306718   -0.211342
     25          6           0       -3.633932   -0.445756   -0.088210
     26          8           0       -4.586447    0.258346    0.524642
     27          8           0       -3.788980   -1.585986   -0.423886
 ---------------------------------------------------------------------

 SCF Done:  E(RwB97XD) =  -607.132929265     A.U. after   17 cycles

 The electronic state is 1-A.
 Alpha  occ. eigenvalues --  -19.20420 -19.14474 -14.37146 -14.23883 -14.22590
 Alpha  occ. eigenvalues --  -14.22127 -10.32612 -10.25466 -10.19389 -10.16785
 Alpha  occ. eigenvalues --  -10.15855 -10.10009  -1.12370  -1.03767  -0.94109
 Alpha  occ. eigenvalues --   -0.85522  -0.80062  -0.77096  -0.73958  -0.71243
 Alpha  occ. eigenvalues --   -0.62973  -0.60593  -0.56961  -0.54590  -0.51429
 Alpha  occ. eigenvalues --   -0.48813  -0.47910  -0.45820  -0.45277  -0.43381
 Alpha  occ. eigenvalues --   -0.41501  -0.40406  -0.39078  -0.37143  -0.36267
 Alpha  occ. eigenvalues --   -0.35169  -0.33718  -0.32676  -0.31887  -0.31198
 Alpha  occ. eigenvalues --   -0.30524  -0.28665  -0.28250  -0.26191  -0.18661
 Alpha  occ. eigenvalues --   -0.15504  -0.11873  -0.03609
 Alpha virt. eigenvalues --    0.15792   0.18122   0.20609   0.22639   0.23394
 Alpha virt. eigenvalues --    0.25091   0.25759   0.26598   0.27616   0.28217
 Alpha virt. eigenvalues --    0.30002   0.30936   0.32241   0.32749   0.33108

 Mulliken charges:
               1
     1  N   -0.595771
     2  H    0.244824
     3  H    0.246423
     4  H    0.340840
     5  C    0.056925
     6  H    0.107076
     7  C   -0.266992
     8  H    0.127080
     9  H    0.095347
    10  C   -0.136948
    11  H    0.045866
    12  H    0.073725
    13  C   -0.070168
    14  H    0.055577
    15  H   -0.006174
    16  N   -0.281977
    17  H   -0.045203
    18  C    0.048669
    19  N   -0.495152
    20  H    0.171182
    21  H    0.009517
    22  N   -0.507322
    23  H    0.163999
    24  H    0.044106
    25  C    0.318939
    26  O   -0.384462
    27  O   -0.359928
 Sum of Mulliken charges =  -1.00000

 Dipole moment (field-independent basis, Debye):
    X=            -14.0997    Y=              5.7926    Z=              0.8524  Tot=             15.2670
 Quadrupole moment (field-independent basis, Debye-Ang):
   XX=           -197.7451   YY=            -83.4946   ZZ=            -78.5546
   XY=             -2.8734   XZ=              0.4253   YZ=             -1.5917

 Normal termination of Gaussian 16 at Tue Jun 10 18:45:38 2025.
