 Gaussian 16, Revision C.01,
 Gaussian 16:  ES64L-G16RevC.01  3-Jul-2019

 ---------------------------------------------
 # wB97xD/Def2TZVP SCF(Tight) Int(Grid=299974)
 ---------------------------------------------

 ------------------
 Displacement_-0.08
 ------------------
 Symbolic Z-matrix:
 Charge = -1 Multiplicity = 1

                         Standard orientation:
 ---------------------------------------------------------------------
 Center     Atomic      Atomic             Coordinates (Angstroms)
 Number     Number       Type             X           Y           Z
 ---------------------------------------------------------------------
      1          7           0       -2.449456    1.662890    0.307526
      2          1           0       -1.892534    1.665134    1.153525
      3          1           0       -2.080824    2.395270   -0.280607
      4          1           0       -4.177321    1.142834    0.658785
      5          6           0       -2.348244    0.353112   -0.352485
      6          1           0       -2.341361    0.520623   -1.434060
      7          6           0       -1.094219   -0.433860    0.019953
      8          1           0       -1.158474   -1.421899   -0.438323
      9          1           0       -1.093956   -0.597429    1.105094
     10          6           0        0.189525    0.268116   -0.402808
     11          1           0        0.226204    1.275167    0.029385
     12          1           0        0.202048    0.399641   -1.489808
     13          6           0        1.455227   -0.474847    0.011713
     14          1           0        1.500477   -1.448811   -0.484488
     15          1           0        1.388596   -0.686855    1.098487
     16          7           0        2.637873    0.252032   -0.371993
     17          1           0        2.663477    1.141623    0.179727
     18          6           0        3.912110   -0.453093   -0.159759
     19          7           0        4.230112   -0.557812    1.251332
     20          1           0        3.542734   -1.114298    1.745876
     21          1           0        4.113060    0.371223    1.738430
     22          7           0        4.954986    0.391738   -0.717682
     23          1           0        4.674945    0.565391   -1.675505
     24          1           0        4.935345    1.294549   -0.194529
     25          6           0       -3.633794   -0.446132   -0.087308
     26          8           0       -4.586322    0.259021    0.524315
     27          8           0       -3.788758   -1.587005   -0.420828
 ---------------------------------------------------------------------

 SCF Done:  E(RwB97XD) =  -607.131913365     A.U. after   17 cycles

 The electronic state is 1-A.
 Alpha  occ. eigenvalues --  -19.20420 -19.14474 -14.37146 -14.23876 -14.22649
 Alpha  occ. eigenvalues --  -14.22104 -10.32612 -10.25466 -10.19389 -10.16784
 Alpha  occ. eigenvalues --  -10.15852 -10.10032  -1.12370  -1.03767  -0.94109
 Alpha  occ. eigenvalues --   -0.85521  -0.80063  -0.77096  -0.73959  -0.71242
 Alpha  occ. eigenvalues --   -0.62971  -0.60592  -0.56959  -0.54588  -0.51428
 Alpha  occ. eigenvalues --   -0.48816  -0.47933  -0.45822  -0.45280  -0.43389
 Alpha  occ. eigenvalues --   -0.41507  -0.40409  -0.39151  -0.37130  -0.36222
 Alpha  occ. eigenvalues --   -0.35211  -0.33578  -0.32663  -0.31888  -0.31205
 Alpha  occ. eigenvalues --   -0.30548  -0.28559  -0.28320  -0.26188  -0.18699
 Alpha  occ. eigenvalues --   -0.15476  -0.11872  -0.03615
 Alpha virt. eigenvalues --    0.15792   0.18121   0.20605   0.22639   0.23382
 Alpha virt. eigenvalues --    0.25073   0.25753   0.26595   0.27597   0.28282
 Alpha virt. eigenvalues --    0.30000   0.30890   0.32243   0.32729   0.33125

 Mulliken charges:
               1
     1  N   -0.595756
     2  H    0.244809
     3  H    0.246430
     4  H    0.340839
     5  C    0.056921
     6  H    0.107074
     7  C   -0.267074
     8  H    0.127096
     9  H    0.095378
    10  C   -0.136606
    11  H    0.045793
    12  H    0.073707
    13  C   -0.069803
    14  H    0.055456
    15  H   -0.006930
    16  N   -0.281148
    17  H   -0.044374
    18  C    0.047349
    19  N   -0.494222
    20  H    0.169668
    21  H    0.005259
    22  N   -0.508731
    23  H    0.165942
    24  H    0.048373
    25  C    0.318937
    26  O   -0.384464
    27  O   -0.359924
 Sum of Mulliken charges =  -1.00000

 Dipole moment (field-independent basis, Debye):
    X=            -14.1014    Y=              5.7878    Z=              0.8414  Tot=             15.2662
 Quadrupole moment (field-independent basis, Debye-Ang):
   XX=           -197.7499   YY=            -83.6055   ZZ=            -78.4590
   XY=             -2.9296   XZ=              0.4166   YZ=             -1.5129

 Normal termination of Gaussian 16 at Tue Jun 10 14:42:28 2025.
