 Gaussian 16, Revision C.01,
 Gaussian 16:  ES64L-G16RevC.01  3-Jul-2019

 ---------------------------------------------
 # wB97xD/Def2TZVP SCF(Tight) Int(Grid=299974)
 ---------------------------------------------

 -----------------
 Displacement_0.03
 -----------------
 Symbolic Z-matrix:
 Charge = -1 Multiplicity = 1

                         Standard orientation:
 ---------------------------------------------------------------------
 Center     Atomic      Atomic             Coordinates (Angstroms)
 Number     Number       Type             X           Y           Z
 ---------------------------------------------------------------------
      1          7           0       -2.449366    1.661813    0.314448
      2          1           0       -1.892626    1.660463    1.160569
      3          1           0       -2.080441    2.396514   -0.270599
      4          1           0       -4.177424    1.140714    0.663201
      5          6           0       -2.348308    0.354728   -0.350904
      6          1           0       -2.341153    0.526669   -1.431781
      7          6           0       -1.094542   -0.434049    0.018575
      8          1           0       -1.158921   -1.420186   -0.443759
      9          1           0       -1.094551   -0.602064    1.103037
     10          6           0        0.189452    0.269362   -0.401028
     11          1           0        0.226266    1.274625    0.035296
     12          1           0        0.202240    0.405338   -1.487478
     13          6           0        1.454897   -0.475581    0.010716
     14          1           0        1.500033   -1.448615   -0.488364
     15          1           0        1.386883   -0.693127    1.096597
     16          7           0        2.637791    0.252595   -0.369753
     17          1           0        2.663477    1.139911    0.186714
     18          6           0        3.910721   -0.453685   -0.159037
     19          7           0        4.228395   -0.563164    1.256083
     20          1           0        3.546284   -1.162164    1.701950
     21          1           0        4.140052    0.384852    1.693084
     22          7           0        4.953909    0.388787   -0.712173
     23          1           0        4.684018    0.620319   -1.661576
     24          1           0        4.938764    1.321401   -0.231493
     25          6           0       -3.634096   -0.445303   -0.089281
     26          8           0       -4.586597    0.257553    0.525022
     27          8           0       -3.789246   -1.584765   -0.427508
 ---------------------------------------------------------------------

 SCF Done:  E(RwB97XD) =  -607.132929502     A.U. after   17 cycles

 The electronic state is 1-A.
 Alpha  occ. eigenvalues --  -19.20421 -19.14475 -14.37146 -14.23897 -14.22543
 Alpha  occ. eigenvalues --  -14.22175 -10.32613 -10.25467 -10.19390 -10.16788
 Alpha  occ. eigenvalues --  -10.15861 -10.09998  -1.12371  -1.03768  -0.94110
 Alpha  occ. eigenvalues --   -0.85529  -0.80062  -0.77098  -0.73946  -0.71246
 Alpha  occ. eigenvalues --   -0.62977  -0.60594  -0.56966  -0.54594  -0.51431
 Alpha  occ. eigenvalues --   -0.48813  -0.47891  -0.45818  -0.45276  -0.43373
 Alpha  occ. eigenvalues --   -0.41532  -0.40407  -0.39044  -0.37187  -0.36324
 Alpha  occ. eigenvalues --   -0.35018  -0.33856  -0.32682  -0.31886  -0.31185
 Alpha  occ. eigenvalues --   -0.30485  -0.28771  -0.28148  -0.26195  -0.18615
 Alpha  occ. eigenvalues --   -0.15540  -0.11875  -0.03609
 Alpha virt. eigenvalues --    0.15791   0.18122   0.20612   0.22637   0.23405
 Alpha virt. eigenvalues --    0.25101   0.25767   0.26600   0.27632   0.28134
 Alpha virt. eigenvalues --    0.29996   0.30979   0.32236   0.32763   0.33083

 Mulliken charges:
               1
     1  N   -0.595788
     2  H    0.244846
     3  H    0.246417
     4  H    0.340844
     5  C    0.056926
     6  H    0.107082
     7  C   -0.266899
     8  H    0.127062
     9  H    0.095325
    10  C   -0.137333
    11  H    0.045980
    12  H    0.073758
    13  C   -0.070671
    14  H    0.055754
    15  H   -0.005189
    16  N   -0.282746
    17  H   -0.045912
    18  C    0.049658
    19  N   -0.495921
    20  H    0.173051
    21  H    0.014128
    22  N   -0.505307
    23  H    0.161671
    24  H    0.038711
    25  C    0.318943
    26  O   -0.384457
    27  O   -0.359932
 Sum of Mulliken charges =  -1.00000

 Dipole moment (field-independent basis, Debye):
    X=            -14.1002    Y=              5.7925    Z=              0.8610  Tot=             15.2679
 Quadrupole moment (field-independent basis, Debye-Ang):
   XX=           -197.7560   YY=            -83.3674   ZZ=            -78.6845
   XY=             -2.8361   XZ=              0.4180   YZ=             -1.6859

 Normal termination of Gaussian 16 at Wed Jun 11 03:52:12 2025.
