 Gaussian 16, Revision C.01,
 Gaussian 16:  ES64L-G16RevC.01  3-Jul-2019

 ---------------------------------------------
 # wB97xD/Def2TZVP SCF(Tight) Int(Grid=299974)
 ---------------------------------------------

 -----------------
 Displacement_0.06
 -----------------
 Symbolic Z-matrix:
 Charge = -1 Multiplicity = 1

                         Standard orientation:
 ---------------------------------------------------------------------
 Center     Atomic      Atomic             Coordinates (Angstroms)
 Number     Number       Type             X           Y           Z
 ---------------------------------------------------------------------
      1          7           0       -2.449341    1.661522    0.316303
      2          1           0       -1.892651    1.659207    1.162454
      3          1           0       -2.080335    2.396841   -0.267915
      4          1           0       -4.177452    1.140148    0.664381
      5          6           0       -2.348325    0.355162   -0.350479
      6          1           0       -2.341095    0.528290   -1.431167
      7          6           0       -1.094630   -0.434099    0.018207
      8          1           0       -1.159044   -1.419724   -0.445215
      9          1           0       -1.094713   -0.603306    1.102484
     10          6           0        0.189433    0.269692   -0.400547
     11          1           0        0.226284    1.274473    0.036884
     12          1           0        0.202293    0.406861   -1.486846
     13          6           0        1.454806   -0.475782    0.010453
     14          1           0        1.499911   -1.448570   -0.489394
     15          1           0        1.386415   -0.694816    1.096089
     16          7           0        2.637768    0.252738   -0.369146
     17          1           0        2.663477    1.139439    0.188598
     18          6           0        3.910342   -0.453853   -0.158830
     19          7           0        4.227925   -0.564609    1.257387
     20          1           0        3.547251   -1.175129    1.689931
     21          1           0        4.147418    0.388662    1.680739
     22          7           0        4.953615    0.387960   -0.710681
     23          1           0        4.686496    0.635247   -1.657713
     24          1           0        4.939702    1.328774   -0.241558
     25          6           0       -3.634179   -0.445076   -0.089812
     26          8           0       -4.586672    0.257164    0.525207
     27          8           0       -3.789380   -1.584156   -0.429300
 ---------------------------------------------------------------------

 SCF Done:  E(RwB97XD) =  -607.132432835     A.U. after   17 cycles

 The electronic state is 1-A.
 Alpha  occ. eigenvalues --  -19.20421 -19.14476 -14.37147 -14.23906 -14.22530
 Alpha  occ. eigenvalues --  -14.22207 -10.32613 -10.25468 -10.19392 -10.16790
 Alpha  occ. eigenvalues --  -10.15866 -10.10000  -1.12372  -1.03769  -0.94111
 Alpha  occ. eigenvalues --   -0.85534  -0.80062  -0.77099  -0.73936  -0.71248
 Alpha  occ. eigenvalues --   -0.62979  -0.60595  -0.56970  -0.54597  -0.51432
 Alpha  occ. eigenvalues --   -0.48813  -0.47886  -0.45818  -0.45276  -0.43371
 Alpha  occ. eigenvalues --   -0.41563  -0.40410  -0.39053  -0.37216  -0.36348
 Alpha  occ. eigenvalues --   -0.34906  -0.33912  -0.32683  -0.31886  -0.31178
 Alpha  occ. eigenvalues --   -0.30463  -0.28816  -0.28088  -0.26197  -0.18591
 Alpha  occ. eigenvalues --   -0.15560  -0.11878  -0.03613
 Alpha virt. eigenvalues --    0.15791   0.18121   0.20614   0.22635   0.23410
 Alpha virt. eigenvalues --    0.25102   0.25772   0.26600   0.27637   0.28090
 Alpha virt. eigenvalues --    0.29990   0.30996   0.32232   0.32765   0.33070

 Mulliken charges:
               1
     1  N   -0.595796
     2  H    0.244859
     3  H    0.246414
     4  H    0.340847
     5  C    0.056925
     6  H    0.107085
     7  C   -0.266855
     8  H    0.127054
     9  H    0.095319
    10  C   -0.137516
    11  H    0.046048
    12  H    0.073779
    13  C   -0.070947
    14  H    0.055856
    15  H   -0.004668
    16  N   -0.283027
    17  H   -0.046147
    18  C    0.049890
    19  N   -0.496247
    20  H    0.174037
    21  H    0.016273
    22  N   -0.504106
    23  H    0.160487
    24  H    0.035880
    25  C    0.318944
    26  O   -0.384453
    27  O   -0.359934
 Sum of Mulliken charges =  -1.00000

 Dipole moment (field-independent basis, Debye):
    X=            -14.1014    Y=              5.7900    Z=              0.8634  Tot=             15.2683
 Quadrupole moment (field-independent basis, Debye-Ang):
   XX=           -197.7683   YY=            -83.3064   ZZ=            -78.7553
   XY=             -2.8297   XZ=              0.4070   YZ=             -1.7326

 Normal termination of Gaussian 16 at Wed Jun 11 01:23:04 2025.
