 Gaussian 16, Revision C.01,
 Gaussian 16:  ES64L-G16RevC.01  3-Jul-2019

 ---------------------------------------------
 # wB97xD/Def2TZVP SCF(Tight) Int(Grid=299974)
 ---------------------------------------------

 -----------------
 Displacement_0.08
 -----------------
 Symbolic Z-matrix:
 Charge = -1 Multiplicity = 1

                         Standard orientation:
 ---------------------------------------------------------------------
 Center     Atomic      Atomic             Coordinates (Angstroms)
 Number     Number       Type             X           Y           Z
 ---------------------------------------------------------------------
      1          7           0       -2.449324    1.661328    0.317531
      2          1           0       -1.892668    1.658373    1.163703
      3          1           0       -2.080265    2.397057   -0.266136
      4          1           0       -4.177471    1.139772    0.665161
      5          6           0       -2.348337    0.355449   -0.350198
      6          1           0       -2.341056    0.529365   -1.430759
      7          6           0       -1.094689   -0.434132    0.017963
      8          1           0       -1.159125   -1.419416   -0.446179
      9          1           0       -1.094822   -0.604129    1.102116
     10          6           0        0.189420    0.269910   -0.400228
     11          1           0        0.226295    1.274371    0.037936
     12          1           0        0.202329    0.407870   -1.486425
     13          6           0        1.454746   -0.475916    0.010280
     14          1           0        1.499830   -1.448542   -0.490074
     15          1           0        1.386102   -0.695938    1.095753
     16          7           0        2.637753    0.252831   -0.368742
     17          1           0        2.663477    1.139124    0.189848
     18          6           0        3.910090   -0.453967   -0.158691
     19          7           0        4.227612   -0.565570    1.258259
     20          1           0        3.547895   -1.183752    1.681910
     21          1           0        4.152330    0.391224    1.672514
     22          7           0        4.953420    0.387404   -0.709689
     23          1           0        4.688149    0.645187   -1.655122
     24          1           0        4.940330    1.333701   -0.248265
     25          6           0       -3.634234   -0.444924   -0.090164
     26          8           0       -4.586722    0.256908    0.525328
     27          8           0       -3.789469   -1.583750   -0.430488
 ---------------------------------------------------------------------

 SCF Done:  E(RwB97XD) =  -607.131918443     A.U. after   17 cycles

 The electronic state is 1-A.
 Alpha  occ. eigenvalues --  -19.20422 -19.14476 -14.37148 -14.23912 -14.22524
 Alpha  occ. eigenvalues --  -14.22232 -10.32614 -10.25468 -10.19393 -10.16792
 Alpha  occ. eigenvalues --  -10.15869 -10.10003  -1.12372  -1.03770  -0.94111
 Alpha  occ. eigenvalues --   -0.85538  -0.80063  -0.77099  -0.73927  -0.71250
 Alpha  occ. eigenvalues --   -0.62981  -0.60595  -0.56972  -0.54599  -0.51433
 Alpha  occ. eigenvalues --   -0.48814  -0.47883  -0.45818  -0.45276  -0.43370
 Alpha  occ. eigenvalues --   -0.41590  -0.40412  -0.39068  -0.37235  -0.36360
 Alpha  occ. eigenvalues --   -0.34821  -0.33944  -0.32684  -0.31885  -0.31173
 Alpha  occ. eigenvalues --   -0.30448  -0.28843  -0.28044  -0.26199  -0.18575
 Alpha  occ. eigenvalues --   -0.15573  -0.11879  -0.03616
 Alpha virt. eigenvalues --    0.15790   0.18121   0.20615   0.22634   0.23414
 Alpha virt. eigenvalues --    0.25101   0.25775   0.26600   0.27639   0.28060
 Alpha virt. eigenvalues --    0.29985   0.31005   0.32229   0.32766   0.33060

 Mulliken charges:
               1
     1  N   -0.595801
     2  H    0.244868
     3  H    0.246412
     4  H    0.340849
     5  C    0.056923
     6  H    0.107088
     7  C   -0.266826
     8  H    0.127049
     9  H    0.095318
    10  C   -0.137636
    11  H    0.046096
    12  H    0.073794
    13  C   -0.071139
    14  H    0.055928
    15  H   -0.004311
    16  N   -0.283172
    17  H   -0.046259
    18  C    0.049943
    19  N   -0.496467
    20  H    0.174721
    21  H    0.017656
    22  N   -0.503217
    23  H    0.159684
    24  H    0.033937
    25  C    0.318945
    26  O   -0.384450
    27  O   -0.359935
 Sum of Mulliken charges =  -1.00000

 Dipole moment (field-independent basis, Debye):
    X=            -14.1027    Y=              5.7875    Z=              0.8643  Tot=             15.2685
 Quadrupole moment (field-independent basis, Debye-Ang):
   XX=           -197.7790   YY=            -83.2667   ZZ=            -78.8047
   XY=             -2.8301   XZ=              0.3969   YZ=             -1.7636

 Normal termination of Gaussian 16 at Tue Jun 10 23:43:52 2025.
