 Gaussian 16, Revision C.01,
 Gaussian 16:  ES64L-G16RevC.01  3-Jul-2019

 ---------------------------------------------
 # wB97xD/Def2TZVP SCF(Tight) Int(Grid=299974)
 ---------------------------------------------

 ------------------
 Displacement_-0.05
 ------------------
 Symbolic Z-matrix:
 Charge = -1 Multiplicity = 1

                         Standard orientation:
 ---------------------------------------------------------------------
 Center     Atomic      Atomic             Coordinates (Angstroms)
 Number     Number       Type             X           Y           Z
 ---------------------------------------------------------------------
      1          7           0       -2.449432    1.662596    0.309433
      2          1           0       -1.892559    1.663850    1.155467
      3          1           0       -2.080720    2.395616   -0.277852
      4          1           0       -4.177349    1.142249    0.660004
      5          6           0       -2.348262    0.353557   -0.352050
      6          1           0       -2.341304    0.522288   -1.433435
      7          6           0       -1.094307   -0.433912    0.019573
      8          1           0       -1.158596   -1.421429   -0.439821
      9          1           0       -1.094118   -0.598706    1.104529
     10          6           0        0.189505    0.268461   -0.402320
     11          1           0        0.226221    1.275022    0.031011
     12          1           0        0.202100    0.401212   -1.489170
     13          6           0        1.455137   -0.475047    0.011436
     14          1           0        1.500356   -1.448753   -0.485561
     15          1           0        1.388130   -0.688577    1.097967
     16          7           0        2.637851    0.252191   -0.371380
     17          1           0        2.663477    1.141159    0.181645
     18          6           0        3.911731   -0.453251   -0.159567
     19          7           0        4.229645   -0.559280    1.252622
     20          1           0        3.543703   -1.127404    1.733919
     21          1           0        4.120419    0.374885    1.726051
     22          7           0        4.954693    0.390946   -0.716173
     23          1           0        4.677417    0.580401   -1.671743
     24          1           0        4.936274    1.301843   -0.204619
     25          6           0       -3.633877   -0.445906   -0.087850
     26          8           0       -4.586397    0.258614    0.524513
     27          8           0       -3.788891   -1.586393   -0.422667
 ---------------------------------------------------------------------

 SCF Done:  E(RwB97XD) =  -607.132633888     A.U. after   17 cycles

 The electronic state is 1-A.
 Alpha  occ. eigenvalues --  -19.20420 -19.14474 -14.37146 -14.23880 -14.22611
 Alpha  occ. eigenvalues --  -14.22116 -10.32612 -10.25466 -10.19389 -10.16785
 Alpha  occ. eigenvalues --  -10.15853 -10.10017  -1.12370  -1.03767  -0.94109
 Alpha  occ. eigenvalues --   -0.85521  -0.80062  -0.77096  -0.73960  -0.71243
 Alpha  occ. eigenvalues --   -0.62972  -0.60592  -0.56960  -0.54589  -0.51429
 Alpha  occ. eigenvalues --   -0.48814  -0.47918  -0.45821  -0.45278  -0.43384
 Alpha  occ. eigenvalues --   -0.41499  -0.40407  -0.39103  -0.37135  -0.36247
 Alpha  occ. eigenvalues --   -0.35195  -0.33665  -0.32673  -0.31887  -0.31202
 Alpha  occ. eigenvalues --   -0.30535  -0.28624  -0.28279  -0.26189  -0.18676
 Alpha  occ. eigenvalues --   -0.15492  -0.11872  -0.03610
 Alpha virt. eigenvalues --    0.15792   0.18122   0.20607   0.22639   0.23389
 Alpha virt. eigenvalues --    0.25084   0.25756   0.26597   0.27609   0.28244
 Alpha virt. eigenvalues --    0.30002   0.30919   0.32242   0.32742   0.33115

 Mulliken charges:
               1
     1  N   -0.595765
     2  H    0.244817
     3  H    0.246426
     4  H    0.340839
     5  C    0.056924
     6  H    0.107075
     7  C   -0.267024
     8  H    0.127086
     9  H    0.095358
    10  C   -0.136814
    11  H    0.045835
    12  H    0.073717
    13  C   -0.070016
    14  H    0.055525
    15  H   -0.006484
    16  N   -0.281665
    17  H   -0.044897
    18  C    0.048193
    19  N   -0.494822
    20  H    0.170575
    21  H    0.007865
    22  N   -0.507907
    23  H    0.164773
    24  H    0.045835
    25  C    0.318939
    26  O   -0.384463
    27  O   -0.359926
 Sum of Mulliken charges =  -1.00000

 Dipole moment (field-independent basis, Debye):
    X=            -14.1002    Y=              5.7912    Z=              0.8484  Tot=             15.2667
 Quadrupole moment (field-independent basis, Debye-Ang):
   XX=           -197.7455   YY=            -83.5385   ZZ=            -78.5150
   XY=             -2.8931   XZ=              0.4235   YZ=             -1.5602

 Normal termination of Gaussian 16 at Tue Jun 10 17:07:22 2025.
