 Gaussian 16, Revision C.01,
 Gaussian 16:  ES64L-G16RevC.01  3-Jul-2019

 ---------------------------------------------
 # wB97xD/Def2TZVP SCF(Tight) Int(Grid=299974)
 ---------------------------------------------

 -----------------
 Displacement_0.07
 -----------------
 Symbolic Z-matrix:
 Charge = -1 Multiplicity = 1

                         Standard orientation:
 ---------------------------------------------------------------------
 Center     Atomic      Atomic             Coordinates (Angstroms)
 Number     Number       Type             X           Y           Z
 ---------------------------------------------------------------------
      1          7           0       -2.449333    1.661425    0.316918
      2          1           0       -1.892660    1.658789    1.163080
      3          1           0       -2.080300    2.396949   -0.267025
      4          1           0       -4.177462    1.139960    0.664772
      5          6           0       -2.348331    0.355306   -0.350338
      6          1           0       -2.341076    0.528828   -1.430963
      7          6           0       -1.094660   -0.434115    0.018085
      8          1           0       -1.159084   -1.419570   -0.445698
      9          1           0       -1.094768   -0.603718    1.102300
     10          6           0        0.189427    0.269801   -0.400387
     11          1           0        0.226290    1.274422    0.037411
     12          1           0        0.202311    0.407366   -1.486636
     13          6           0        1.454776   -0.475849    0.010366
     14          1           0        1.499871   -1.448556   -0.489735
     15          1           0        1.386259   -0.695377    1.095921
     16          7           0        2.637761    0.252785   -0.368944
     17          1           0        2.663477    1.139282    0.189224
     18          6           0        3.910216   -0.453910   -0.158761
     19          7           0        4.227768   -0.565090    1.257823
     20          1           0        3.547573   -1.179443    1.685921
     21          1           0        4.149874    0.389941    1.676626
     22          7           0        4.953518    0.387683   -0.710185
     23          1           0        4.687323    0.640218   -1.656419
     24          1           0        4.940016    1.331237   -0.244912
     25          6           0       -3.634206   -0.445000   -0.089988
     26          8           0       -4.586697    0.257036    0.525268
     27          8           0       -3.789425   -1.583953   -0.429895
 ---------------------------------------------------------------------

 SCF Done:  E(RwB97XD) =  -607.132193937     A.U. after   17 cycles

 The electronic state is 1-A.
 Alpha  occ. eigenvalues --  -19.20422 -19.14476 -14.37147 -14.23909 -14.22526
 Alpha  occ. eigenvalues --  -14.22219 -10.32614 -10.25468 -10.19392 -10.16791
 Alpha  occ. eigenvalues --  -10.15867 -10.10001  -1.12372  -1.03769  -0.94111
 Alpha  occ. eigenvalues --   -0.85535  -0.80063  -0.77099  -0.73931  -0.71249
 Alpha  occ. eigenvalues --   -0.62980  -0.60595  -0.56971  -0.54598  -0.51433
 Alpha  occ. eigenvalues --   -0.48814  -0.47884  -0.45818  -0.45276  -0.43370
 Alpha  occ. eigenvalues --   -0.41576  -0.40411  -0.39060  -0.37225  -0.36354
 Alpha  occ. eigenvalues --   -0.34865  -0.33929  -0.32683  -0.31885  -0.31175
 Alpha  occ. eigenvalues --   -0.30456  -0.28830  -0.28067  -0.26198  -0.18583
 Alpha  occ. eigenvalues --   -0.15566  -0.11879  -0.03614
 Alpha virt. eigenvalues --    0.15790   0.18121   0.20614   0.22635   0.23412
 Alpha virt. eigenvalues --    0.25101   0.25773   0.26600   0.27638   0.28075
 Alpha virt. eigenvalues --    0.29988   0.31000   0.32231   0.32766   0.33065

 Mulliken charges:
               1
     1  N   -0.595799
     2  H    0.244863
     3  H    0.246413
     4  H    0.340848
     5  C    0.056924
     6  H    0.107087
     7  C   -0.266840
     8  H    0.127052
     9  H    0.095318
    10  C   -0.137576
    11  H    0.046071
    12  H    0.073786
    13  C   -0.071042
    14  H    0.055891
    15  H   -0.004490
    16  N   -0.283104
    17  H   -0.046207
    18  C    0.049927
    19  N   -0.496356
    20  H    0.174376
    21  H    0.016969
    22  N   -0.503671
    23  H    0.160087
    24  H    0.034914
    25  C    0.318945
    26  O   -0.384452
    27  O   -0.359934
 Sum of Mulliken charges =  -1.00000

 Dipole moment (field-independent basis, Debye):
    X=            -14.1020    Y=              5.7888    Z=              0.8639  Tot=             15.2684
 Quadrupole moment (field-independent basis, Debye-Ang):
   XX=           -197.7734   YY=            -83.2865   ZZ=            -78.7798
   XY=             -2.8294   XZ=              0.4022   YZ=             -1.7481

 Normal termination of Gaussian 16 at Wed Jun 11 00:33:19 2025.
