 Gaussian 16, Revision C.01,
 Gaussian 16:  ES64L-G16RevC.01  3-Jul-2019

 ---------------------------------------------
 # wB97xD/Def2TZVP SCF(Tight) Int(Grid=299974)
 ---------------------------------------------

 ------------------
 Displacement_-0.06
 ------------------
 Symbolic Z-matrix:
 Charge = -1 Multiplicity = 1

                         Standard orientation:
 ---------------------------------------------------------------------
 Center     Atomic      Atomic             Coordinates (Angstroms)
 Number     Number       Type             X           Y           Z
 ---------------------------------------------------------------------
      1          7           0       -2.449440    1.662694    0.308799
      2          1           0       -1.892551    1.664277    1.154821
      3          1           0       -2.080755    2.395501   -0.278768
      4          1           0       -4.177340    1.142443    0.659599
      5          6           0       -2.348256    0.353409   -0.352194
      6          1           0       -2.341323    0.521735   -1.433643
      7          6           0       -1.094278   -0.433895    0.019699
      8          1           0       -1.158555   -1.421585   -0.439323
      9          1           0       -1.094064   -0.598282    1.104717
     10          6           0        0.189512    0.268346   -0.402482
     11          1           0        0.226215    1.275070    0.030471
     12          1           0        0.202082    0.400690   -1.489383
     13          6           0        1.455167   -0.474980    0.011528
     14          1           0        1.500396   -1.448772   -0.485204
     15          1           0        1.388285   -0.688004    1.098140
     16          7           0        2.637858    0.252139   -0.371584
     17          1           0        2.663477    1.141314    0.181007
     18          6           0        3.911857   -0.453198   -0.159632
     19          7           0        4.229801   -0.558791    1.252192
     20          1           0        3.543380   -1.123040    1.737906
     21          1           0        4.117966    0.373660    1.730176
     22          7           0        4.954790    0.391211   -0.716675
     23          1           0        4.676593    0.575401   -1.673000
     24          1           0        4.935964    1.299409   -0.201256
     25          6           0       -3.633849   -0.445982   -0.087670
     26          8           0       -4.586372    0.258749    0.524447
     27          8           0       -3.788847   -1.586597   -0.422056
 ---------------------------------------------------------------------

 SCF Done:  E(RwB97XD) =  -607.132430724     A.U. after   17 cycles

 The electronic state is 1-A.
 Alpha  occ. eigenvalues --  -19.20420 -19.14474 -14.37146 -14.23878 -14.22623
 Alpha  occ. eigenvalues --  -14.22112 -10.32612 -10.25466 -10.19389 -10.16784
 Alpha  occ. eigenvalues --  -10.15853 -10.10021  -1.12370  -1.03767  -0.94109
 Alpha  occ. eigenvalues --   -0.85521  -0.80062  -0.77096  -0.73960  -0.71243
 Alpha  occ. eigenvalues --   -0.62972  -0.60592  -0.56959  -0.54589  -0.51428
 Alpha  occ. eigenvalues --   -0.48815  -0.47923  -0.45821  -0.45279  -0.43386
 Alpha  occ. eigenvalues --   -0.41501  -0.40408  -0.39117  -0.37132  -0.36238
 Alpha  occ. eigenvalues --   -0.35203  -0.33637  -0.32670  -0.31887  -0.31203
 Alpha  occ. eigenvalues --   -0.30540  -0.28603  -0.28293  -0.26189  -0.18684
 Alpha  occ. eigenvalues --   -0.15487  -0.11872  -0.03612
 Alpha virt. eigenvalues --    0.15792   0.18122   0.20606   0.22639   0.23387
 Alpha virt. eigenvalues --    0.25081   0.25755   0.26596   0.27605   0.28257
 Alpha virt. eigenvalues --    0.30001   0.30909   0.32242   0.32738   0.33119

 Mulliken charges:
               1
     1  N   -0.595762
     2  H    0.244814
     3  H    0.246427
     4  H    0.340839
     5  C    0.056923
     6  H    0.107074
     7  C   -0.267041
     8  H    0.127090
     9  H    0.095365
    10  C   -0.136745
    11  H    0.045820
    12  H    0.073714
    13  C   -0.069943
    14  H    0.055501
    15  H   -0.006635
    16  N   -0.281499
    17  H   -0.044731
    18  C    0.047928
    19  N   -0.494637
    20  H    0.170273
    21  H    0.007014
    22  N   -0.508188
    23  H    0.165161
    24  H    0.046688
    25  C    0.318938
    26  O   -0.384463
    27  O   -0.359926
 Sum of Mulliken charges =  -1.00000

 Dipole moment (field-independent basis, Debye):
    X=            -14.1005    Y=              5.7902    Z=              0.8462  Tot=             15.2665
 Quadrupole moment (field-independent basis, Debye-Ang):
   XX=           -197.7465   YY=            -83.5606   ZZ=            -78.4959
   XY=             -2.9043   XZ=              0.4217   YZ=             -1.5445

 Normal termination of Gaussian 16 at Tue Jun 10 16:19:36 2025.
