 Gaussian 16, Revision C.01,
 Gaussian 16:  ES64L-G16RevC.01  3-Jul-2019

 ---------------------------------------------
 # wB97xD/Def2TZVP SCF(Tight) Int(Grid=299974)
 ---------------------------------------------

 -----------------
 Displacement_0.01
 -----------------
 Symbolic Z-matrix:
 Charge = -1 Multiplicity = 1

                         Standard orientation:
 ---------------------------------------------------------------------
 Center     Atomic      Atomic             Coordinates (Angstroms)
 Number     Number       Type             X           Y           Z
 ---------------------------------------------------------------------
      1          7           0       -2.449383    1.662008    0.313204
      2          1           0       -1.892609    1.661305    1.159303
      3          1           0       -2.080511    2.396293   -0.272399
      4          1           0       -4.177405    1.141095    0.662409
      5          6           0       -2.348297    0.354437   -0.351188
      6          1           0       -2.341191    0.525582   -1.432193
      7          6           0       -1.094483   -0.434015    0.018823
      8          1           0       -1.158840   -1.420496   -0.442783
      9          1           0       -1.094442   -0.601231    1.103408
     10          6           0        0.189466    0.269139   -0.401350
     11          1           0        0.226255    1.274725    0.034232
     12          1           0        0.202205    0.404315   -1.487900
     13          6           0        1.454957   -0.475448    0.010894
     14          1           0        1.500114   -1.448647   -0.487671
     15          1           0        1.387195   -0.691995    1.096937
     16          7           0        2.637806    0.252497   -0.370159
     17          1           0        2.663477    1.140224    0.185453
     18          6           0        3.910974   -0.453575   -0.159172
     19          7           0        4.228708   -0.562197    1.255215
     20          1           0        3.545640   -1.153500    1.709953
     21          1           0        4.135143    0.382333    1.701320
     22          7           0        4.954105    0.389333   -0.713170
     23          1           0        4.682366    0.610354   -1.664136
     24          1           0        4.938140    1.316497   -0.224779
     25          6           0       -3.634041   -0.445454   -0.088925
     26          8           0       -4.586547    0.257815    0.524897
     27          8           0       -3.789157   -1.585171   -0.426306
 ---------------------------------------------------------------------

 SCF Done:  E(RwB97XD) =  -607.133076850     A.U. after   17 cycles

 The electronic state is 1-A.
 Alpha  occ. eigenvalues --  -19.20420 -19.14474 -14.37146 -14.23892 -14.22556
 Alpha  occ. eigenvalues --  -14.22157 -10.32612 -10.25466 -10.19390 -10.16787
 Alpha  occ. eigenvalues --  -10.15859 -10.10000  -1.12371  -1.03768  -0.94110
 Alpha  occ. eigenvalues --   -0.85526  -0.80062  -0.77097  -0.73952  -0.71245
 Alpha  occ. eigenvalues --   -0.62975  -0.60593  -0.56965  -0.54593  -0.51430
 Alpha  occ. eigenvalues --   -0.48812  -0.47897  -0.45818  -0.45276  -0.43375
 Alpha  occ. eigenvalues --   -0.41517  -0.40406  -0.39048  -0.37170  -0.36306
 Alpha  occ. eigenvalues --   -0.35079  -0.33814  -0.32680  -0.31886  -0.31190
 Alpha  occ. eigenvalues --   -0.30499  -0.28738  -0.28185  -0.26193  -0.18630
 Alpha  occ. eigenvalues --   -0.15528  -0.11874  -0.03608
 Alpha virt. eigenvalues --    0.15792   0.18122   0.20611   0.22638   0.23401
 Alpha virt. eigenvalues --    0.25099   0.25764   0.26599   0.27628   0.28162
 Alpha virt. eigenvalues --    0.29999   0.30966   0.32238   0.32759   0.33092

 Mulliken charges:
               1
     1  N   -0.595782
     2  H    0.244838
     3  H    0.246419
     4  H    0.340842
     5  C    0.056926
     6  H    0.107080
     7  C   -0.266929
     8  H    0.127068
     9  H    0.095330
    10  C   -0.137208
    11  H    0.045939
    12  H    0.073746
    13  C   -0.070496
    14  H    0.055691
    15  H   -0.005526
    16  N   -0.282519
    17  H   -0.045711
    18  C    0.049404
    19  N   -0.495691
    20  H    0.172416
    21  H    0.012643
    22  N   -0.506030
    23  H    0.162450
    24  H    0.040547
    25  C    0.318941
    26  O   -0.384459
    27  O   -0.359930
 Sum of Mulliken charges =  -1.00000

 Dipole moment (field-independent basis, Debye):
    X=            -14.0997    Y=              5.7932    Z=              0.8587  Tot=             15.2676
 Quadrupole moment (field-independent basis, Debye-Ang):
   XX=           -197.7504   YY=            -83.4091   ZZ=            -78.6394
   XY=             -2.8449   XZ=              0.4226   YZ=             -1.6546

 Normal termination of Gaussian 16 at Wed Jun 11 05:31:32 2025.
