 Gaussian 16, Revision C.01,
 Gaussian 16:  ES64L-G16RevC.01  3-Jul-2019

 ---------------------------------------------
 # wB97xD/Def2TZVP SCF(Tight) Int(Grid=299974)
 ---------------------------------------------

 -----------------
 Displacement_0.04
 -----------------
 Symbolic Z-matrix:
 Charge = -1 Multiplicity = 1

                         Standard orientation:
 ---------------------------------------------------------------------
 Center     Atomic      Atomic             Coordinates (Angstroms)
 Number     Number       Type             X           Y           Z
 ---------------------------------------------------------------------
      1          7           0       -2.449358    1.661716    0.315068
      2          1           0       -1.892634    1.660043    1.161199
      3          1           0       -2.080406    2.396623   -0.269702
      4          1           0       -4.177433    1.140525    0.663596
      5          6           0       -2.348314    0.354873   -0.350762
      6          1           0       -2.341134    0.527211   -1.431576
      7          6           0       -1.094571   -0.434065    0.018452
      8          1           0       -1.158962   -1.420032   -0.444246
      9          1           0       -1.094605   -0.602479    1.102852
     10          6           0        0.189446    0.269472   -0.400868
     11          1           0        0.226272    1.274574    0.035827
     12          1           0        0.202258    0.405847   -1.487267
     13          6           0        1.454867   -0.475648    0.010628
     14          1           0        1.499992   -1.448600   -0.488708
     15          1           0        1.386727   -0.693691    1.096427
     16          7           0        2.637783    0.252643   -0.369550
     17          1           0        2.663477    1.139754    0.187343
     18          6           0        3.910595   -0.453741   -0.158968
     19          7           0        4.228238   -0.563646    1.256517
     20          1           0        3.546607   -1.166490    1.697945
     21          1           0        4.142507    0.386117    1.688968
     22          7           0        4.953811    0.388512   -0.711675
     23          1           0        4.684844    0.625297   -1.660291
     24          1           0        4.939077    1.323857   -0.234849
     25          6           0       -3.634124   -0.445228   -0.089458
     26          8           0       -4.586622    0.257423    0.525084
     27          8           0       -3.789291   -1.584562   -0.428107
 ---------------------------------------------------------------------

 SCF Done:  E(RwB97XD) =  -607.132800661     A.U. after   17 cycles

 The electronic state is 1-A.
 Alpha  occ. eigenvalues --  -19.20421 -19.14475 -14.37147 -14.23900 -14.22538
 Alpha  occ. eigenvalues --  -14.22185 -10.32613 -10.25467 -10.19391 -10.16789
 Alpha  occ. eigenvalues --  -10.15863 -10.09998  -1.12371  -1.03768  -0.94110
 Alpha  occ. eigenvalues --   -0.85530  -0.80062  -0.77098  -0.73943  -0.71247
 Alpha  occ. eigenvalues --   -0.62977  -0.60594  -0.56968  -0.54595  -0.51431
 Alpha  occ. eigenvalues --   -0.48813  -0.47889  -0.45818  -0.45276  -0.43372
 Alpha  occ. eigenvalues --   -0.41541  -0.40408  -0.39045  -0.37196  -0.36333
 Alpha  occ. eigenvalues --   -0.34983  -0.33876  -0.32682  -0.31886  -0.31183
 Alpha  occ. eigenvalues --   -0.30478  -0.28787  -0.28129  -0.26196  -0.18607
 Alpha  occ. eigenvalues --   -0.15547  -0.11876  -0.03610
 Alpha virt. eigenvalues --    0.15791   0.18121   0.20613   0.22636   0.23407
 Alpha virt. eigenvalues --    0.25102   0.25769   0.26600   0.27634   0.28119
 Alpha virt. eigenvalues --    0.29994   0.30985   0.32235   0.32764   0.33079

 Mulliken charges:
               1
     1  N   -0.595791
     2  H    0.244850
     3  H    0.246416
     4  H    0.340844
     5  C    0.056926
     6  H    0.107083
     7  C   -0.266884
     8  H    0.127060
     9  H    0.095322
    10  C   -0.137395
    11  H    0.046002
    12  H    0.073765
    13  C   -0.070762
    14  H    0.055787
    15  H   -0.005017
    16  N   -0.282848
    17  H   -0.045999
    18  C    0.049756
    19  N   -0.496031
    20  H    0.173375
    21  H    0.014854
    22  N   -0.504924
    23  H    0.161278
    24  H    0.037778
    25  C    0.318943
    26  O   -0.384456
    27  O   -0.359932
 Sum of Mulliken charges =  -1.00000

 Dipole moment (field-independent basis, Debye):
    X=            -14.1005    Y=              5.7918    Z=              0.8619  Tot=             15.2680
 Quadrupole moment (field-independent basis, Debye-Ang):
   XX=           -197.7596   YY=            -83.3469   ZZ=            -78.7077
   XY=             -2.8331   XZ=              0.4149   YZ=             -1.7015

 Normal termination of Gaussian 16 at Wed Jun 11 03:02:34 2025.
