 Gaussian 16, Revision C.01,
 Gaussian 16:  ES64L-G16RevC.01  3-Jul-2019

 ---------------------------------------------
 # wB97xD/Def2TZVP SCF(Tight) Int(Grid=299974)
 ---------------------------------------------

 -----------------
 Displacement_0.09
 -----------------
 Symbolic Z-matrix:
 Charge = -1 Multiplicity = 1

                         Standard orientation:
 ---------------------------------------------------------------------
 Center     Atomic      Atomic             Coordinates (Angstroms)
 Number     Number       Type             X           Y           Z
 ---------------------------------------------------------------------
      1          7           0       -2.449316    1.661231    0.318143
      2          1           0       -1.892676    1.657958    1.164325
      3          1           0       -2.080229    2.397164   -0.265250
      4          1           0       -4.177480    1.139586    0.665550
      5          6           0       -2.348342    0.355593   -0.350057
      6          1           0       -2.341037    0.529900   -1.430555
      7          6           0       -1.094719   -0.434148    0.017842
      8          1           0       -1.159166   -1.419263   -0.446659
      9          1           0       -1.094877   -0.604538    1.101933
     10          6           0        0.189414    0.270019   -0.400068
     11          1           0        0.226301    1.274319    0.038461
     12          1           0        0.202347    0.408372   -1.486216
     13          6           0        1.454716   -0.475983    0.010194
     14          1           0        1.499789   -1.448529   -0.490413
     15          1           0        1.385946   -0.696497    1.095585
     16          7           0        2.637746    0.252877   -0.368540
     17          1           0        2.663477    1.138966    0.190472
     18          6           0        3.909963   -0.454024   -0.158620
     19          7           0        4.227455   -0.566049    1.258696
     20          1           0        3.548217   -1.188057    1.677896
     21          1           0        4.154786    0.392512    1.668402
     22          7           0        4.953322    0.387124   -0.709194
     23          1           0        4.688976    0.650154   -1.653822
     24          1           0        4.940644    1.336168   -0.251617
     25          6           0       -3.634262   -0.444848   -0.090340
     26          8           0       -4.586747    0.256780    0.525388
     27          8           0       -3.789514   -1.583547   -0.431080
 ---------------------------------------------------------------------

 SCF Done:  E(RwB97XD) =  -607.131606403     A.U. after   17 cycles

 The electronic state is 1-A.
 Alpha  occ. eigenvalues --  -19.20422 -19.14477 -14.37148 -14.23916 -14.22522
 Alpha  occ. eigenvalues --  -14.22245 -10.32614 -10.25469 -10.19394 -10.16793
 Alpha  occ. eigenvalues --  -10.15871 -10.10006  -1.12373  -1.03770  -0.94112
 Alpha  occ. eigenvalues --   -0.85540  -0.80063  -0.77100  -0.73922  -0.71251
 Alpha  occ. eigenvalues --   -0.62982  -0.60596  -0.56974  -0.54600  -0.51434
 Alpha  occ. eigenvalues --   -0.48815  -0.47882  -0.45818  -0.45277  -0.43369
 Alpha  occ. eigenvalues --   -0.41604  -0.40413  -0.39078  -0.37245  -0.36366
 Alpha  occ. eigenvalues --   -0.34776  -0.33959  -0.32685  -0.31885  -0.31171
 Alpha  occ. eigenvalues --   -0.30440  -0.28856  -0.28021  -0.26200  -0.18567
 Alpha  occ. eigenvalues --   -0.15580  -0.11880  -0.03619
 Alpha virt. eigenvalues --    0.15790   0.18120   0.20615   0.22634   0.23415
 Alpha virt. eigenvalues --    0.25100   0.25776   0.26600   0.27640   0.28045
 Alpha virt. eigenvalues --    0.29982   0.31009   0.32228   0.32765   0.33055

 Mulliken charges:
               1
     1  N   -0.595804
     2  H    0.244873
     3  H    0.246412
     4  H    0.340850
     5  C    0.056922
     6  H    0.107090
     7  C   -0.266812
     8  H    0.127047
     9  H    0.095318
    10  C   -0.137695
    11  H    0.046122
    12  H    0.073803
    13  C   -0.071236
    14  H    0.055965
    15  H   -0.004129
    16  N   -0.283231
    17  H   -0.046301
    18  C    0.049938
    19  N   -0.496582
    20  H    0.175072
    21  H    0.018336
    22  N   -0.502744
    23  H    0.159279
    24  H    0.032948
    25  C    0.318946
    26  O   -0.384448
    27  O   -0.359936
 Sum of Mulliken charges =  -1.00000

 Dipole moment (field-independent basis, Debye):
    X=            -14.1034    Y=              5.7860    Z=              0.8646  Tot=             15.2686
 Quadrupole moment (field-independent basis, Debye-Ang):
   XX=           -197.7851   YY=            -83.2472   ZZ=            -78.8301
   XY=             -2.8316   XZ=              0.3911   YZ=             -1.7790

 Normal termination of Gaussian 16 at Tue Jun 10 22:54:36 2025.
