 Gaussian 16, Revision C.01,
 Gaussian 16:  ES64L-G16RevC.01  3-Jul-2019

 ---------------------------------------------
 # wB97xD/Def2TZVP SCF(Tight) Int(Grid=299974)
 ---------------------------------------------

 ------------------
 Displacement_-0.01
 ------------------
 Symbolic Z-matrix:
 Charge = -1 Multiplicity = 1

                         Standard orientation:
 ---------------------------------------------------------------------
 Center     Atomic      Atomic             Coordinates (Angstroms)
 Number     Number       Type             X           Y           Z
 ---------------------------------------------------------------------
      1          7           0       -2.449399    1.662204    0.311953
      2          1           0       -1.892593    1.662150    1.158031
      3          1           0       -2.080581    2.396069   -0.274208
      4          1           0       -4.177387    1.141478    0.661612
      5          6           0       -2.348285    0.354145   -0.351474
      6          1           0       -2.341229    0.524489   -1.432605
      7          6           0       -1.094425   -0.433981    0.019071
      8          1           0       -1.158758   -1.420806   -0.441801
      9          1           0       -1.094334   -0.600394    1.103780
     10          6           0        0.189479    0.268915   -0.401672
     11          1           0        0.226243    1.274825    0.033163
     12          1           0        0.202169    0.403286   -1.488322
     13          6           0        1.455017   -0.475314    0.011073
     14          1           0        1.500194   -1.448681   -0.486973
     15          1           0        1.387507   -0.690860    1.097279
     16          7           0        2.637821    0.252397   -0.370565
     17          1           0        2.663477    1.140536    0.184188
     18          6           0        3.911226   -0.453465   -0.159306
     19          7           0        4.229020   -0.561227    1.254349
     20          1           0        3.544994   -1.144818    1.717949
     21          1           0        4.130234    0.379833    1.709559
     22          7           0        4.954301    0.389875   -0.714169
     23          1           0        4.680716    0.600380   -1.666684
     24          1           0        4.937517    1.311603   -0.218062
     25          6           0       -3.633986   -0.445605   -0.088568
     26          8           0       -4.586497    0.258079    0.524771
     27          8           0       -3.789069   -1.585578   -0.425099
 ---------------------------------------------------------------------

 SCF Done:  E(RwB97XD) =  -607.133076851     A.U. after   17 cycles

 The electronic state is 1-A.
 Alpha  occ. eigenvalues --  -19.20420 -19.14474 -14.37146 -14.23887 -14.22571
 Alpha  occ. eigenvalues --  -14.22141 -10.32612 -10.25466 -10.19389 -10.16786
 Alpha  occ. eigenvalues --  -10.15856 -10.10004  -1.12370  -1.03768  -0.94109
 Alpha  occ. eigenvalues --   -0.85524  -0.80062  -0.77097  -0.73956  -0.71244
 Alpha  occ. eigenvalues --   -0.62974  -0.60593  -0.56963  -0.54592  -0.51429
 Alpha  occ. eigenvalues --   -0.48813  -0.47903  -0.45819  -0.45277  -0.43378
 Alpha  occ. eigenvalues --   -0.41506  -0.40406  -0.39059  -0.37155  -0.36287
 Alpha  occ. eigenvalues --   -0.35130  -0.33768  -0.32679  -0.31886  -0.31194
 Alpha  occ. eigenvalues --   -0.30512  -0.28703  -0.28218  -0.26192  -0.18645
 Alpha  occ. eigenvalues --   -0.15516  -0.11873  -0.03608
 Alpha virt. eigenvalues --    0.15792   0.18122   0.20610   0.22638   0.23398
 Alpha virt. eigenvalues --    0.25095   0.25761   0.26599   0.27622   0.28190
 Alpha virt. eigenvalues --    0.30001   0.30952   0.32239   0.32754   0.33100

 Mulliken charges:
               1
     1  N   -0.595777
     2  H    0.244831
     3  H    0.246421
     4  H    0.340841
     5  C    0.056926
     6  H    0.107078
     7  C   -0.266960
     8  H    0.127074
     9  H    0.095338
    10  C   -0.137079
    11  H    0.045901
    12  H    0.073735
    13  C   -0.070328
    14  H    0.055632
    15  H   -0.005854
    16  N   -0.282262
    17  H   -0.045474
    18  C    0.049074
    19  N   -0.495438
    20  H    0.171794
    21  H    0.011108
    22  N   -0.506699
    23  H    0.163226
    24  H    0.042345
    25  C    0.318940
    26  O   -0.384461
    27  O   -0.359929
 Sum of Mulliken charges =  -1.00000

 Dipole moment (field-independent basis, Debye):
    X=            -14.0996    Y=              5.7933    Z=              0.8558  Tot=             15.2673
 Quadrupole moment (field-independent basis, Debye-Ang):
   XX=           -197.7468   YY=            -83.4515   ZZ=            -78.5961
   XY=             -2.8573   XZ=              0.4251   YZ=             -1.6232

 Normal termination of Gaussian 16 at Tue Jun 10 20:25:31 2025.
