 Gaussian 16, Revision C.01,
 Gaussian 16:  ES64L-G16RevC.01  3-Jul-2019

 ---------------------------------------------
 # wB97xD/Def2TZVP SCF(Tight) Int(Grid=299974)
 ---------------------------------------------

 ------------------
 Displacement_-0.02
 ------------------
 Symbolic Z-matrix:
 Charge = -1 Multiplicity = 1

                         Standard orientation:
 ---------------------------------------------------------------------
 Center     Atomic      Atomic             Coordinates (Angstroms)
 Number     Number       Type             X           Y           Z
 ---------------------------------------------------------------------
      1          7           0       -2.449407    1.662302    0.311326
      2          1           0       -1.892584    1.662574    1.157393
      3          1           0       -2.080616    2.395957   -0.275116
      4          1           0       -4.177377    1.141670    0.661212
      5          6           0       -2.348279    0.353998   -0.351618
      6          1           0       -2.341248    0.523941   -1.432812
      7          6           0       -1.094395   -0.433964    0.019196
      8          1           0       -1.158718   -1.420962   -0.441308
      9          1           0       -1.094280   -0.599974    1.103967
     10          6           0        0.189485    0.268802   -0.401834
     11          1           0        0.226238    1.274874    0.032627
     12          1           0        0.202152    0.402770   -1.488534
     13          6           0        1.455047   -0.475247    0.011163
     14          1           0        1.500235   -1.448698   -0.486622
     15          1           0        1.387663   -0.690291    1.097450
     16          7           0        2.637828    0.252346   -0.370769
     17          1           0        2.663477    1.140692    0.183554
     18          6           0        3.911353   -0.453411   -0.159372
     19          7           0        4.229176   -0.560741    1.253917
     20          1           0        3.544672   -1.140471    1.721944
     21          1           0        4.127780    0.378589    1.713681
     22          7           0        4.954399    0.390144   -0.714669
     23          1           0        4.679891    0.595389   -1.667954
     24          1           0        4.937206    1.309160   -0.214702
     25          6           0       -3.633959   -0.445681   -0.088389
     26          8           0       -4.586472    0.258212    0.524707
     27          8           0       -3.789024   -1.585782   -0.424493
 ---------------------------------------------------------------------

 SCF Done:  E(RwB97XD) =  -607.133021521     A.U. after   17 cycles

 The electronic state is 1-A.
 Alpha  occ. eigenvalues --  -19.20420 -19.14474 -14.37146 -14.23885 -14.22580
 Alpha  occ. eigenvalues --  -14.22134 -10.32612 -10.25466 -10.19389 -10.16785
 Alpha  occ. eigenvalues --  -10.15855 -10.10006  -1.12370  -1.03767  -0.94109
 Alpha  occ. eigenvalues --   -0.85523  -0.80062  -0.77096  -0.73957  -0.71244
 Alpha  occ. eigenvalues --   -0.62973  -0.60593  -0.56962  -0.54591  -0.51429
 Alpha  occ. eigenvalues --   -0.48813  -0.47906  -0.45819  -0.45277  -0.43379
 Alpha  occ. eigenvalues --   -0.41503  -0.40406  -0.39068  -0.37149  -0.36277
 Alpha  occ. eigenvalues --   -0.35151  -0.33744  -0.32678  -0.31886  -0.31196
 Alpha  occ. eigenvalues --   -0.30518  -0.28684  -0.28234  -0.26191  -0.18653
 Alpha  occ. eigenvalues --   -0.15510  -0.11873  -0.03608
 Alpha virt. eigenvalues --    0.15792   0.18122   0.20609   0.22638   0.23396
 Alpha virt. eigenvalues --    0.25093   0.25760   0.26598   0.27619   0.28204
 Alpha virt. eigenvalues --    0.30001   0.30944   0.32240   0.32752   0.33104

 Mulliken charges:
               1
     1  N   -0.595774
     2  H    0.244827
     3  H    0.246422
     4  H    0.340840
     5  C    0.056926
     6  H    0.107077
     7  C   -0.266976
     8  H    0.127077
     9  H    0.095343
    10  C   -0.137014
    11  H    0.045883
    12  H    0.073730
    13  C   -0.070247
    14  H    0.055604
    15  H   -0.006015
    16  N   -0.282123
    17  H   -0.045343
    18  C    0.048880
    19  N   -0.495300
    20  H    0.171487
    21  H    0.010320
    22  N   -0.507016
    23  H    0.163612
    24  H    0.043230
    25  C    0.318940
    26  O   -0.384462
    27  O   -0.359928
 Sum of Mulliken charges =  -1.00000

 Dipole moment (field-independent basis, Debye):
    X=            -14.0996    Y=              5.7930    Z=              0.8542  Tot=             15.2672
 Quadrupole moment (field-independent basis, Debye-Ang):
   XX=           -197.7457   YY=            -83.4730   ZZ=            -78.5751
   XY=             -2.8649   XZ=              0.4255   YZ=             -1.6075

 Normal termination of Gaussian 16 at Tue Jun 10 19:35:27 2025.
